! S-parameter export from FEKO
!   Filename:      circular_2wg_7modes_SParameter1.s14p
!   Creation date: 2019-12-29 03:38:02
! 
# Hz S MA R  0.00000E+00  0.00000E+00  0.00000E+00  0.00000E+00  0.00000E+00  0.00000E+00  0.00000E+00  0.00000E+00  0.00000E+00  0.00000E+00  0.00000E+00  0.00000E+00  0.00000E+00  0.00000E+00
! 
 4.0000000E+09  1.2741468E-01   -0.000  3.1635210E-06   20.963  3.1005045E-02 -179.999  1.0981944E-05 -100.667
                1.9444515E-02   -0.001  8.3614034E-06   92.644  1.4389088E-02 -180.000  9.0299527E-01   -0.000
                7.0753136E-06 -100.748  5.9765651E-02   -0.001  1.0176800E-05   78.803  3.8683458E-02  180.000
                6.7249597E-06  -72.050  2.8205610E-02    0.005
                8.1740593E-06   98.258  8.1899267E-03    0.021  2.9592992E-06  -82.660  7.2682393E-03  179.995
                5.7704209E-07  170.962  5.8396489E-03    0.000  1.4552877E-06   99.304  5.7470958E-06   96.761
                6.9850499E-01 -180.000  6.6320428E-06  -89.655  5.3760832E-02  180.000  9.6591336E-06   87.188
                2.7824946E-02   -0.009  9.5919025E-06  -84.176
                3.1005305E-02  179.997  4.4572073E-06  -92.427  1.2602773E-02   -0.001  3.0216404E-06   74.845
                9.3486088E-03 -179.999  3.0703419E-06 -117.920  7.9988055E-03    0.001  3.5398403E-02  179.996
                3.0940043E-06   75.577  5.8708327E-01   -0.000  4.9337935E-06  -99.802  6.2431926E-02    0.001
                9.0799483E-06   66.886  3.1612928E-02  179.999
                9.1422482E-06  -92.783  7.2665308E-03  179.996  2.1891223E-06   87.885  6.6590264E-03    0.004
                1.5193374E-06 -100.746  5.7088294E-03 -179.997  1.2079898E-06  -79.814  7.7471428E-06  -89.265
                3.9642754E-02    0.000  9.2412938E-06   91.506  4.8893935E-01  180.000  1.1454490E-05  -91.386
                6.5415521E-02 -179.999  1.3216947E-05   90.220
                1.9448705E-02    0.002  1.7145017E-06  135.323  9.3472377E-03  179.994  2.4647207E-06  -93.428
                7.7704781E-03   -0.003  1.7868179E-07  -40.166  7.5373944E-03 -179.997  2.0197592E-02   -0.004
                4.3314008E-06  145.259  4.2153253E-02  180.000  1.7398629E-06   67.823  4.1289022E-01    0.000
                1.6467301E-06  -97.273  6.7156016E-02    0.000
                9.5434491E-06   90.876  5.8398330E-03   -0.017  3.6001512E-06 -105.812  5.7069076E-03 -179.997
                1.2467245E-06   57.617  5.1767702E-03    0.006  1.7515506E-06   87.993  9.6975654E-06   83.397
                1.9579554E-02  179.996  9.8186127E-06  -91.720  4.4812840E-02    0.001  1.2388554E-05   92.551
                3.4504483E-01  180.000  1.3614972E-05  -90.891
                1.4395279E-02  179.995  2.2252514E-06  118.933  7.9990042E-03   -0.002  2.5517819E-06  -98.737
                7.5371324E-03  179.997  3.0335078E-06  105.735  9.3203079E-03    0.001  1.4222353E-02 -179.999
                9.2220044E-07 -115.520  2.1117004E-02    0.000  3.8263229E-06   87.567  4.3975642E-02 -179.999
                2.8785200E-06  -77.527  2.9081055E-01   -0.000
                9.0299828E-01   -0.000  6.1718360E-06   79.453  3.5396380E-02  180.000  9.4000057E-06  -91.713
                2.0195780E-02   -0.000  8.2178542E-06   87.234  1.4219207E-02 -179.999  1.4846044E-01 -179.999
                7.5031281E-06 -111.236  4.3073264E-02    0.001  1.0729388E-05   84.012  3.0803012E-02  179.999
                8.3849530E-06  -66.514  2.3346809E-02    0.004
                8.8834078E-06  -88.245  6.9850257E-01 -180.000  3.6886084E-06   98.352  3.9639737E-02    0.001
                2.1900891E-06  -80.997  1.9576485E-02  179.999  3.2748237E-07 -112.673  7.1692155E-06  -91.491
                2.1113452E-02 -179.999  8.9000788E-06   93.024  2.0284620E-02    0.002  1.2108072E-05  -92.909
                1.7398915E-02  179.993  1.2372653E-05   94.910
                5.9764601E-02    0.000  6.8651173E-06  -79.952  5.8708268E-01   -0.000  8.4088792E-06   86.720
                4.2151959E-02  180.000  9.9168030E-06  -91.087  2.1115286E-02    0.000  4.3070761E-02    0.001
                7.7151458E-06   96.446  2.3376729E-02 -179.998  1.0803825E-05  -93.416  1.9683982E-02    0.002
                1.1473574E-05   91.817  1.6154353E-02 -179.995
                8.0078118E-06   86.087  5.3761766E-02 -179.998  4.4007246E-06  -94.622  4.8893818E-01  180.000
                2.5072072E-06   87.354  4.4813004E-02   -0.000  4.1074446E-07  139.841  8.1799395E-06   93.740
                2.0285244E-02   -0.001  1.1212827E-05  -91.013  2.0488075E-02 -179.997  1.4382950E-05   90.364
                1.8256294E-02    0.003  1.6061760E-05  -91.737
                3.8681051E-02 -179.999  1.0359890E-05   88.383  6.2431836E-02   -0.000  9.7481898E-06  -88.495
                4.1288811E-01   -0.000  1.1539353E-05   87.369  4.3973064E-02  180.000  3.0799403E-02 -179.999
                1.0536412E-05  -86.285  1.9684243E-02    0.002  1.2880735E-05   92.975  1.7546253E-02 -179.997
                1.4582287E-05  -95.087  1.4816292E-02    0.005
                7.4896402E-06  -99.119  2.7824820E-02    0.004  4.6423322E-06   76.058  6.5413789E-02 -180.000
                1.8183119E-06 -101.098  3.4504553E-01 -180.000  1.1556500E-06  -80.850  1.0169258E-05 -100.602
                1.7398941E-02 -179.992  1.1384530E-05   86.190  1.8257761E-02   -0.000  1.4730400E-05  -85.190
                1.6785829E-02 -179.999  1.6957916E-05   87.139
                2.8205799E-02   -0.001  9.4688013E-06  -87.207  3.1611945E-02 -179.998  1.3964412E-05   87.214
                6.7155593E-02   -0.000  1.2336659E-05  -90.357  2.9080915E-01    0.000  2.3346533E-02    0.003
                1.2116849E-05   88.118  1.6155120E-02 -179.998  1.6642770E-05  -90.374  1.4816660E-02    0.005
                1.5124160E-05   87.122  1.2128373E-02 -179.997
 4.5000000E+09  9.4762468E-01 -118.988  1.5809659E-05   26.846  5.6810285E-02  116.816  1.5326348E-05 -142.931
                3.4104811E-02  -61.454  1.7316544E-05   32.115  2.4674590E-02  119.439  1.2875612E+00  -14.725
                1.3234303E-05 -156.659  8.9713596E-02  -55.051  1.5218662E-05   25.715  6.0455718E-02  123.223
                1.2220231E-05 -161.033  4.4791115E-02  -57.448
                1.1472470E-05   24.568  6.8156239E-03   13.027  2.5876397E-06  -93.391  6.6859603E-03 -172.897
                7.9394373E-07   81.593  5.4922777E-03    5.688  2.1026387E-06  110.038  1.2053833E-05   70.794
                7.0696529E-01  179.824  9.6459120E-06  -87.222  5.3509641E-02 -178.489  9.5076376E-06   90.023
                2.7472741E-02    2.184  1.1680384E-05  -87.036
                5.6814278E-02  116.816  1.8359980E-06 -106.669  1.3755609E-02  -13.032  5.2464571E-06   70.086
                9.9831400E-03  169.425  4.6429217E-06  -93.879  8.4378966E-03   -8.963  7.8754978E-02  165.275
                6.9983889E-06  101.833  5.9055018E-01    0.436  6.8767749E-06  -88.590  6.3504561E-02   -2.792
                4.4497061E-06   84.564  3.2338089E-02  175.906
                1.5902737E-05 -150.298  6.6825012E-03 -172.901  3.1798862E-06   75.583  6.4179852E-03    3.974
                1.9255638E-06  -80.486  5.5656777E-03 -176.993  1.3152330E-06  -91.036  2.1618174E-05 -104.033
                4.0301427E-02   -1.659  9.7780279E-06  101.736  4.9189852E-01  179.912  1.3430164E-05  -87.845
                6.5475476E-02 -179.507  1.4340515E-05   94.468
                3.4118207E-02  -61.452  1.8789633E-06  -21.154  9.9829917E-03  169.420  2.6600570E-06  -94.093
                8.1173937E-03   -7.663  3.2854343E-06   78.392  7.7798519E-03  174.266  4.6547547E-02  -14.725
                2.2090306E-06  -12.195  4.1982429E-02 -176.368  5.6347459E-06  121.827  4.1435852E-01    0.253
                5.6766564E-06 -121.702  6.7703195E-02   -1.155
                2.3194456E-05   31.239  5.4883712E-03    5.716  4.7513903E-06 -103.732  5.5629955E-03 -176.957
                2.5314387E-06   88.753  5.0946491E-03    2.186  2.1797254E-06   62.901  2.6987212E-05   74.656
                1.9913976E-02  177.781  1.0900430E-05  -75.139  4.5195868E-02   -0.633  1.4243134E-05   94.255
                3.4646205E-01  179.939  1.4873641E-05  -85.983
                2.4676544E-02  119.439  2.9138199E-06   58.750  8.4380256E-03   -8.965  5.5448158E-06 -108.378
                7.7798894E-03  174.268  4.2005048E-06   89.041  9.4969925E-03   -3.366  3.3383417E-02  165.274
                1.9593478E-06   81.901  2.0959436E-02    5.221  2.6881013E-06  120.127  4.3905919E-02 -178.289
                1.2315883E-06  -63.835  2.9154610E-01    0.192
                1.2875614E+00  -14.725  2.2243705E-05   67.985  7.8755132E-02  165.274  2.0904960E-05  -99.151
                4.6535161E-02  -14.726  2.3653649E-05   77.736  3.3378863E-02  165.275  9.9999552E-01   60.550
                1.6655672E-05 -114.782  1.1422152E-01  -14.725  2.1452585E-05   74.189  7.8558452E-02  165.275
                1.8499628E-05 -111.437  5.8646166E-02  -14.724
                1.5704504E-05 -150.455  7.0696947E-01  179.824  5.2130788E-06   71.636  4.0303829E-02   -1.659
                3.1691502E-06 -115.719  1.9914229E-02  177.780  1.8123480E-06    8.947  1.9633420E-05 -110.388
                2.0884016E-02  171.576  1.1044380E-05   90.925  2.0494200E-02   -5.565  1.3010715E-05  -86.390
                1.7636416E-02  175.205  1.4964964E-05   92.537
                8.9709270E-02  -55.049  7.1483584E-06  -78.956  5.9055198E-01    0.436  1.0110044E-05   99.747
                4.1979396E-02 -176.371  1.0155462E-05  -80.929  2.0956997E-02    5.219  1.1421439E-01  -14.725
                1.1327622E-05   90.207  2.3376783E-02 -163.797  1.2351108E-05  -85.066  1.9529973E-02   13.283
                1.2734111E-05   95.761  1.5992672E-02 -167.908
                1.4823799E-05   25.946  5.3511542E-02 -178.489  4.4654236E-06 -106.081  4.9190035E-01  179.912
                3.0284576E-06   66.672  4.5195138E-02   -0.635  8.6641504E-07  155.235  1.8774660E-05   77.256
                2.0493992E-02   -5.564  1.2369504E-05  -82.685  2.0795530E-02  176.441  1.6934281E-05   88.494
                1.8525189E-02   -2.964  1.7878088E-05  -88.083
                6.0453825E-02  123.222  1.1147690E-05   96.585  6.3503067E-02   -2.792  1.2045500E-05  -89.271
                4.1435743E-01    0.253  1.1613839E-05   95.324  4.3903248E-02 -178.289  7.8555738E-02  165.276
                1.4929352E-05  -85.591  1.9531130E-02   13.283  1.4610623E-05   95.999  1.7330241E-02 -169.741
                1.6730129E-05  -86.144  1.4620488E-02    9.069
                1.8908440E-05 -151.813  2.7472022E-02    2.186  4.8965066E-06   81.238  6.5473914E-02 -179.509
                3.0035811E-06  -95.739  3.4646337E-01  179.939  1.6269302E-06  -66.583  2.2839104E-05 -103.047
                1.7632005E-02  175.208  1.3016066E-05   96.211  1.8525560E-02   -2.966  1.7057326E-05  -86.954
                1.7012521E-02  177.608  1.8556356E-05   92.058
                4.4788940E-02  -57.449  1.1843791E-05  -83.733  3.2339413E-02  175.906  1.4451630E-05   94.187
                6.7702259E-02   -1.155  1.5282968E-05  -85.891  2.9154503E-01    0.192  5.8641208E-02  -14.724
                1.4774686E-05   85.511  1.5993389E-02 -167.910  1.8669644E-05  -88.671  1.4621664E-02    9.069
                1.8486357E-05   92.242  1.1959788E-02 -171.729
 5.0000000E+09  7.2143734E-02  170.315  4.3814450E-06   35.060  3.0865875E-02  122.643  9.2524537E-06 -134.879
                1.8471431E-02  -53.713  9.7841739E-06   46.157  1.3345483E-02  128.138  9.9739485E-01   -5.120
                6.1735760E-06 -150.040  4.8466818E-02  -40.395  1.1541318E-05   31.417  3.2631555E-02  135.966
                1.0716413E-05 -131.951  2.4173440E-02  -45.424
                6.2228507E-06   52.399  6.1669415E-03    6.771  3.7109658E-06  -67.168  6.6543940E-03 -176.702
                9.7977255E-08 -178.188  5.5338551E-03    2.608  1.5908223E-06   65.376  9.4616408E-06   49.021
                7.1478070E-01  179.919  8.5428475E-06  -94.542  5.4525895E-02 -179.319  1.2170004E-05   97.390
                2.8020580E-02    0.986  1.3009714E-05  -89.024
                3.0867418E-02  122.645  4.9264298E-06 -107.287  1.2392975E-02   -4.737  2.9312833E-06   72.225
                9.1374361E-03  176.165  4.7669154E-06 -100.774  7.8261210E-03   -3.234  3.3109272E-02  141.233
                6.2107534E-06   95.613  5.9809779E-01    0.148  3.4928482E-06 -100.199  6.2200225E-02   -0.977
                5.6446330E-06   85.747  3.1263276E-02  178.554
                1.3422929E-05 -135.837  6.6571263E-03 -176.706  2.7287075E-06   77.319  6.5270051E-03    1.783
                2.2465980E-06 -107.174  5.6593969E-03 -178.642  2.4277672E-06  -99.593  1.3425576E-05 -169.204
                3.9925737E-02   -0.769  1.1812472E-05   93.356  4.9454147E-01  179.960  1.3190618E-05  -87.997
                6.6067956E-02 -179.782  1.6963159E-05   93.916
                1.8471255E-02  -53.712  3.5525986E-06  142.274  9.1376192E-03  176.142  3.4930725E-06  -67.298
                7.5993175E-03   -2.776  2.7083458E-06   64.404  7.4128974E-03  177.949  1.9844623E-02  -41.930
                2.7913357E-06  110.221  4.3851570E-02 -178.770  3.4568558E-06  109.537  4.1747601E-01    0.088
                5.1938906E-06 -148.840  6.7216495E-02   -0.405
                8.8470778E-06   47.704  5.5312567E-03    2.614  8.2924110E-06  -87.582  5.6623003E-03 -178.673
                1.1674517E-06   72.275  5.1738894E-03    0.959  2.5076395E-06   91.117  1.2758710E-05   90.126
                1.9533636E-02  178.968  1.5460002E-05  -85.237  4.5144130E-02   -0.284  1.4938463E-05   87.980
                3.4770647E-01  179.972  1.7150954E-05  -90.664
                1.3348256E-02  128.165  3.7674759E-06  128.059  7.8250865E-03   -3.235  1.9887441E-06  -48.122
                7.4132582E-03  177.949  1.2314890E-06   61.805  9.2507752E-03   -1.192  1.4347195E-02  136.467
                3.1050098E-06   38.790  2.2247263E-02    1.759  5.0674319E-06  108.640  4.4869103E-02 -179.404
                6.2458180E-06  -92.754  2.9316035E-01    0.068
                9.9739588E-01   -5.120  7.5786098E-06   39.772  3.3107179E-02  141.233  1.0260573E-05 -127.257
                1.9844060E-02  -41.929  1.1027864E-05   54.805  1.4343202E-02  136.466  7.2141876E-02   -0.554
                5.2508549E-06 -131.294  5.1921022E-02  -53.469  1.2358548E-05   38.945  3.5033447E-02  129.692
                1.1053993E-05 -127.585  2.5965517E-02  -49.094
                7.6651338E-06 -130.903  7.1478410E-01  179.919  4.3360960E-06   76.253  3.9921073E-02   -0.765
                2.0601768E-06 -100.466  1.9536072E-02  178.975  7.8415499E-07  -70.256  8.6577099E-06 -139.821
                1.7034056E-02  175.250  1.1019321E-05   84.195  1.8612367E-02   -2.786  1.5078517E-05  -89.103
                1.6366059E-02  177.659  1.6936972E-05   91.047
                4.8467713E-02  -40.396  9.3145347E-06  -80.887  5.9809818E-01    0.148  1.2186035E-05   92.048
                4.3850964E-02 -178.771  1.3456576E-05  -86.757  2.2244980E-02    1.761  5.1923624E-02  -53.471
                1.0608234E-05   88.953  2.7995521E-02 -174.828  1.3727474E-05  -83.030  2.2567120E-02    4.316
                1.6353532E-05   92.789  1.8223423E-02 -176.046
                1.1281750E-05   31.547  5.4523494E-02 -179.317  6.5895465E-06  -91.615  4.9454092E-01  179.960
                2.8612839E-06   68.090  4.5147653E-02   -0.286  1.3955379E-06  103.644  1.2563998E-05   45.402
                1.8609826E-02   -2.778  1.5007484E-05  -86.377  1.9849003E-02  178.328  1.8830509E-05   95.940
                1.7881240E-02   -1.370  2.0398322E-05  -88.676
                3.2630590E-02  135.968  1.1736562E-05   90.927  6.2203647E-02   -0.976  1.4822277E-05  -92.007
                4.1747528E-01    0.088  1.4882765E-05   95.519  4.4863507E-02 -179.406  3.5031048E-02  129.693
                1.5284809E-05  -87.241  2.2568815E-02    4.314  1.8791356E-05   91.065  1.9331134E-02 -176.597
                1.8395121E-05  -82.523  1.6086803E-02    3.028
                1.1473982E-05 -139.007  2.8017614E-02    0.986  6.0672750E-06   92.076  6.6060854E-02 -179.781
                2.4629108E-06  -99.355  3.4771488E-01  179.972  1.5070521E-06  -87.840  1.1534687E-05 -126.632
                1.6362469E-02  177.659  1.6430068E-05   86.544  1.7881501E-02   -1.374  1.7605759E-05  -90.887
                1.6571643E-02  178.905  2.1475486E-05   89.288
                2.4175196E-02  -45.433  1.4224735E-05  -84.612  3.1262952E-02  178.557  1.4729485E-05   92.577
                6.7215297E-02   -0.406  1.7213872E-05  -89.468  2.9315887E-01    0.068  2.5965646E-02  -49.095
                1.4750166E-05   90.893  1.8223329E-02 -176.042  1.8280946E-05  -89.994  1.6088058E-02    3.031
                2.2098758E-05   89.386  1.3025921E-02 -177.226
 5.5000000E+09  2.5408564E-02  164.575  1.1615508E-05   76.104  2.6768863E-02  117.444  1.1962400E-05 -145.040
                1.5958145E-02  -57.501  9.1479482E-06   12.104  1.1511594E-02  125.034  9.9967674E-01   -7.576
                1.0163425E-05 -131.703  4.1753458E-02  -39.245  6.6566700E-06   60.165  2.8087642E-02  135.700
                2.9219051E-06 -177.730  2.0801751E-02  -46.213
                1.2630994E-05   40.145  4.1853078E-03    9.196  4.4515088E-06 -104.584  6.0228751E-03 -176.725
                1.2739918E-06  106.647  5.1937884E-03    2.461  1.3354210E-06   84.636  9.2579977E-06   56.315
                7.2547026E-01  179.927  1.1176539E-05  -93.197  5.4693404E-02 -179.396  1.3562256E-05   91.520
                2.7909470E-02    0.870  1.4215937E-05  -92.090
                2.6771392E-02  117.434  3.1132426E-06 -142.769  1.3024352E-02   -3.237  4.4629663E-06   91.271
                9.4532016E-03  177.350  5.4191541E-06  -70.858  8.0398566E-03   -2.230  2.7421995E-02  144.509
                6.1301832E-07 -154.178  6.0360306E-01    0.100  8.5901219E-06 -166.828  6.2844609E-02   -0.667
                1.3126991E-05   98.994  3.1628725E-02  179.008
                9.8855157E-06 -146.974  6.0228547E-03 -176.702  3.6846016E-06   96.058  6.3347010E-03    1.604
                2.1785188E-06 -109.730  5.5637651E-03 -178.794  2.1407747E-06  -95.259  1.0894701E-05 -141.554
                4.0328782E-02   -0.680  1.3612383E-05   96.718  4.9802414E-01  179.966  1.4925093E-05  -86.781
                6.6343553E-02 -179.813  1.8305534E-05   91.075
                1.5963541E-02  -57.503  3.4840422E-06   13.464  9.4534256E-03  177.345  3.6337892E-06   22.290
                7.7580035E-03   -1.925  3.1033396E-06  102.735  7.5249632E-03  178.563  1.6364086E-02  -40.313
                7.9702254E-06 -146.321  4.4192387E-02 -179.157  3.0327697E-06   28.600  4.1974327E-01    0.061
                7.1191550E-06  -82.378  6.7587152E-02   -0.283
                1.1747740E-05   21.647  5.1866833E-03    2.536  4.8257219E-06  -82.318  5.5681371E-03 -178.817
                1.4002949E-06  102.559  5.1301811E-03    0.841  2.0202594E-06  105.155  1.0793221E-05   40.785
                1.9654716E-02  179.113  1.4331824E-05  -80.535  4.5435841E-02   -0.246  1.7835539E-05   89.528
                3.4935665E-01  179.977  1.8725029E-05  -89.492
                1.1518304E-02  125.037  4.2768845E-06  140.564  8.0403072E-03   -2.239  4.0149285E-06  -30.937
                7.5244182E-03  178.570  3.0602187E-06   70.978  9.3445067E-03   -0.839  1.1813066E-02  137.279
                5.5769199E-06  -98.680  2.2437490E-02    1.212  1.0028581E-05   98.972  4.5066396E-02 -179.586
                2.2390980E-06 -152.240  2.9430353E-01    0.047
                9.9967403E-01   -7.576  8.6033284E-06   37.833  2.7418174E-02  144.505  1.0737470E-05 -139.005
                1.6363403E-02  -40.313  8.7601827E-06   45.546  1.1806980E-02  137.275  2.5407935E-02    0.264
                8.7362292E-06 -145.666  4.2718244E-02  -57.686  8.5077920E-06   42.999  2.8779734E-02  127.135
                7.7988914E-06 -119.277  2.1323151E-02  -51.044
                9.0664622E-06 -155.882  7.2546820E-01  179.927  5.1577492E-06   82.558  4.0324764E-02   -0.672
                3.2269076E-06  -95.830  1.9659641E-02  179.101  8.1169992E-07  -66.020  6.7550512E-06 -123.450
                1.4594286E-02  175.056  1.3658186E-05   88.116  1.7871731E-02   -2.540  1.7308715E-05  -90.993
                1.5964808E-02  177.902  1.8459851E-05   91.838
                4.1756326E-02  -39.246  1.1226798E-05  -79.672  6.0360601E-01    0.100  1.4156921E-05   93.624
                4.4190141E-02 -179.158  1.4511363E-05  -89.656  2.2433408E-02    1.213  4.2718283E-02  -57.684
                1.4662085E-05   93.918  2.9071034E-02 -176.480  1.7124485E-05  -85.290  2.3119756E-02    2.969
                1.8381155E-05   90.649  1.8585077E-02 -177.271
                1.0977072E-05   36.119  5.4698747E-02 -179.393  6.0346332E-06  -95.942  4.9802794E-01  179.966
                1.9176225E-06   76.850  4.5442551E-02   -0.244  1.8233212E-06  106.403  1.0038483E-05   40.411
                1.7870012E-02   -2.552  1.7634652E-05  -88.076  1.9701062E-02  178.547  1.9417269E-05   91.020
                1.7833694E-02   -1.185  2.2509868E-05  -90.450
                2.8085257E-02  135.702  1.3823587E-05   91.327  6.2843412E-02   -0.668  1.4923316E-05  -89.080
                4.1974175E-01    0.061  1.6945291E-05   91.650  4.5063860E-02 -179.585  2.8779291E-02  127.137
                1.6544357E-05  -86.061  2.3120253E-02    2.970  2.0205436E-05   91.894  1.9590068E-02 -177.631
                1.8310295E-05  -90.638  1.6246533E-02    2.115
                1.0529550E-05 -146.245  2.7908595E-02    0.872  6.2584217E-06   93.017  6.6339215E-02 -179.811
                3.2770770E-06  -90.236  3.4935979E-01  179.976  1.7897774E-06  -88.083  1.1249555E-05 -131.720
                1.5964355E-02  177.898  1.7903819E-05   93.420  1.7836471E-02   -1.190  2.1271753E-05  -90.402
                1.6584054E-02  179.058  2.2969947E-05   89.724
                2.0801033E-02  -46.212  1.2921326E-05  -91.773  3.1627964E-02  179.008  1.7338419E-05   92.407
                6.7585376E-02   -0.283  1.8899417E-05  -89.876  2.9430252E-01    0.047  2.1323162E-02  -51.044
                1.8432885E-05   89.336  1.8585365E-02 -177.269  2.2953755E-05  -89.880  1.6247294E-02    2.116
                2.5041467E-05   87.491  1.3116008E-02 -178.055
 6.0000000E+09  9.0591382E-03  157.198  1.1375988E-05   38.048  2.4428712E-02  112.987  1.0650318E-05 -146.454
                1.4496290E-02  -60.659  1.1806335E-05   37.301  1.0438296E-02  122.490  9.9996221E-01   -9.569
                1.3766549E-05 -118.015  3.7809758E-02  -38.056  8.3912644E-06   55.070  2.5399293E-02  135.586
                1.0897720E-05 -139.854  1.8811475E-02  -46.786
                1.0097183E-05   38.851  1.4863419E-03   28.225  4.7320825E-06  -96.454  5.2048368E-03 -176.155
                1.2937202E-06  115.540  4.7542137E-03    2.726  2.6384665E-06   95.515  9.3185203E-06   11.265
                7.3797071E-01  179.926  9.1596139E-06  -87.371  5.4880415E-02 -179.393  1.3404866E-05   96.104
                2.7766382E-02    0.886  1.4948515E-05  -90.247
                2.4429386E-02  112.974  5.7587204E-06  -97.981  1.3793952E-02   -2.504  3.8407787E-07   64.440
                9.8271451E-03  177.931  2.4020503E-06  -85.272  8.2883282E-03   -1.763  2.4645997E-02  147.267
                8.1698372E-06   88.057  6.0981042E-01    0.077  3.8691057E-06 -145.481  6.3581083E-02   -0.522
                3.7927963E-06  138.809  3.2048793E-02  179.221
                1.4670144E-05 -161.670  5.2034812E-03 -176.125  3.5152066E-06  101.719  6.1075803E-03    1.630
                2.3381905E-06  -87.814  5.4551208E-03 -178.789  3.5406794E-06 -108.874  7.9549986E-06 -138.360
                4.0792128E-02   -0.670  1.6603325E-05   75.629  5.0191438E-01  179.966  1.8582771E-05  -89.775
                6.6654004E-02 -179.815  1.7330091E-05   84.868
                1.4488635E-02  -60.676  1.6957684E-06 -116.380  9.8241990E-03  177.913  4.5675247E-06 -107.304
                7.9379167E-03   -1.528  1.6522638E-06   78.908  7.6524586E-03  178.852  1.4623804E-02  -38.982
                6.0901835E-06 -139.913  4.4582298E-02 -179.351  5.8350905E-06   98.806  4.2225479E-01    0.048
                3.0348602E-06 -141.023  6.7998036E-02   -0.227
                7.7798408E-06  -34.202  4.7595824E-03    2.723  5.9692174E-06 -117.184  5.4553060E-03 -178.803
                9.0168505E-07  109.025  5.0815741E-03    0.814  3.3311937E-06  106.425  1.5266947E-05   64.027
                1.9801199E-02  179.133  2.2863729E-05  -84.180  4.5774211E-02   -0.238  1.7529033E-05   90.926
                3.5117568E-01  179.977  2.1482764E-05  -83.565
                1.0446253E-02  122.495  2.5810465E-06 -145.283  8.2926244E-03   -1.728  4.7439506E-06  -92.200
                7.6506785E-03  178.856  2.9164485E-06   78.975  9.4496755E-03   -0.661  1.0535999E-02  137.938
                4.5705479E-06  -87.735  2.2649175E-02    0.964  8.4246257E-06  106.978  4.5287028E-02 -179.669
                4.2997333E-06   15.941  2.9556464E-01    0.037
                9.9995832E-01   -9.569  9.8299595E-06   36.653  2.4635002E-02  147.259  9.8479895E-06 -132.110
                1.4626973E-02  -38.984  1.0812141E-05   50.771  1.0534718E-02  137.937  9.0707031E-03    3.604
                8.6455375E-06 -135.807  3.8086857E-02  -61.201  1.0424800E-05   44.152  2.5613237E-02  125.056
                1.0590521E-05 -127.443  1.8971219E-02  -52.612
                8.1156953E-06 -151.142  7.3797329E-01  179.926  6.1063754E-06   89.803  4.0791462E-02   -0.664
                2.7621392E-06  -93.047  1.9802219E-02  179.113  7.8376773E-07  -69.340  1.2281050E-05 -133.302
                1.1240267E-02  173.492  1.6618421E-05   89.386  1.6942420E-02   -2.658  1.7942110E-05  -90.514
                1.5476736E-02  177.855  2.0190257E-05   88.717
                3.7810913E-02  -38.059  1.0081332E-05  -98.551  6.0981409E-01    0.077  1.5479086E-05   91.383
                4.4574810E-02 -179.344  1.5005588E-05  -86.859  2.2650043E-02    0.950  3.8088128E-02  -61.200
                1.2675677E-05   87.622  3.0371925E-02 -177.279  1.8995833E-05  -86.606  2.3769448E-02    2.323
                2.0098989E-05   93.679  1.9006217E-02 -177.862
                8.5970236E-06   40.782  5.4883647E-02 -179.390  6.3281908E-06  -88.129  5.0192144E-01  179.967
                3.4367189E-06   91.985  4.5771418E-02   -0.237  1.1553831E-06  109.135  1.1049655E-05   60.643
                1.6944865E-02   -2.648  1.6911770E-05  -88.353  1.9536118E-02  178.582  2.2447626E-05   90.175
                1.7788230E-02   -1.145  2.4519046E-05  -90.219
                2.5399798E-02  135.586  1.3568896E-05   99.513  6.3579389E-02   -0.521  1.6185421E-05  -88.889
                4.2225258E-01    0.048  1.9335323E-05   88.977  4.5284480E-02 -179.670  2.5609551E-02  125.053
                1.7419564E-05  -83.897  2.3768703E-02    2.322  1.8262406E-05   89.019  1.9886025E-02 -178.124
                2.1690563E-05  -89.154  1.6427919E-02    1.682
                1.2490964E-05 -170.305  2.7761608E-02    0.885  7.5685346E-06   86.342  6.6645709E-02 -179.816
                3.6210331E-06 -104.386  3.5118232E-01  179.977  1.2448240E-06  -62.027  1.0757906E-05 -114.229
                1.5477201E-02  177.861  1.9577786E-05   92.847  1.7788897E-02   -1.145  2.2846135E-05  -91.553
                1.6593965E-02  179.092  2.5914810E-05   90.450
                1.8807531E-02  -46.781  1.3305659E-05  -93.800  3.2048991E-02  179.223  2.0313724E-05   90.046
                6.7997857E-02   -0.225  1.8482177E-05  -88.694  2.9556295E-01    0.038  1.8969258E-02  -52.613
                2.0363388E-05   87.115  1.9008931E-02 -177.861  2.7063600E-05  -89.239  1.6428349E-02    1.682
                2.6574306E-05   90.978  1.3216770E-02 -178.444
 6.5000000E+09  1.1631581E-03  107.954  9.7382952E-06   83.660  2.2864791E-02  108.846  1.2313546E-05 -169.861
                1.3497357E-02  -63.534  1.4016380E-05   25.480  9.7008183E-03  120.157  9.9999406E-01  -11.347
                2.4585891E-06   67.040  3.5073378E-02  -36.847  1.3518781E-05  -18.697  2.3530595E-02  135.528
                1.1320270E-05 -149.264  1.7417969E-02  -47.272
                1.1427438E-05   29.016  2.9306608E-03  164.507  6.7726821E-06 -104.714  4.1057862E-03 -174.744
                1.2737881E-06  116.444  4.1853414E-03    3.298  1.8990098E-06   92.285  4.9271543E-06   14.834
                7.5267971E-01  179.921  1.2385048E-05  -91.601  5.5077018E-02 -179.351  1.2515291E-05   91.921
                2.7573976E-02    0.944  1.6552107E-05  -93.992
                2.2877861E-02  108.848  1.1348522E-05 -156.111  1.4719429E-02   -2.045  6.2430667E-06  113.220
                1.0264423E-02  178.278  5.0992775E-06  -91.883  8.5789022E-03   -1.455  2.2895162E-02  149.850
                1.4532981E-05   84.348  6.1678900E-01    0.062  1.8217981E-05  -72.568  6.4417008E-02   -0.430
                1.0177654E-05  120.157  3.2532525E-02  179.361
                1.0384202E-05 -131.007  4.1213331E-03 -174.674  4.4346589E-06  104.505  5.8397923E-03    1.765
                2.5092218E-06  -63.208  5.3166917E-03 -178.718  1.8085341E-06  -82.934  1.3407419E-05 -126.208
                4.1340030E-02   -0.696  1.5636718E-05   99.795  5.0624423E-01  179.967  2.0554870E-05  -91.731
                6.6980610E-02 -179.811  2.1204722E-05   91.622
                1.3505445E-02  -63.538  8.8472871E-06 -117.435  1.0265024E-02  178.284  3.2636463E-06 -179.439
                8.1422975E-03   -1.285  4.7112582E-06  163.334  7.7955023E-03  179.039  1.3514967E-02  -37.785
                9.5257920E-06 -119.313  4.5012139E-02 -179.463  7.2060755E-06  166.429  4.2502125E-01    0.041