! S-parameter export from POSTFEKO
! Filename: circular_2wg_9modes
! Creation date: 2020-01-01 12:29:29
! 
# Hz S MA R    5.0000000E+01 
  4.0000000E+09     1.2701204E-01     2.3885474E-03     4.0515640E-06     8.6759784E+01     3.0558653E-02    -1.7999852E+02     1.2032343E-05    -6.8705917E+01   
                   1.8782909E-02    -2.8179004E-03     1.0850775E-05     8.3720923E+01     1.3027921E-02     1.7999998E+02     9.6191340E-06    -1.0780599E+02   
                   1.0072782E-02     4.6688363E-03     9.0264340E-01     4.1159649E-04     7.7211136E-06    -8.3100457E+01     6.0114615E-02     3.1694446E-05   
                   1.2174818E-05     1.1283345E+02     3.9074026E-02    -1.7999805E+02     1.2255493E-05    -4.4539205E+01     2.8681854E-02    -1.0287960E-03   
                   1.7458847E-05     9.7361605E+01     2.1809713E-02     1.7999682E+02   
                   6.9159907E-06     8.0106352E+01     8.0088622E-03    -9.0796857E-03     3.1128141E-06    -9.8223024E+01     7.0067819E-03    -1.7998335E+02   
                   1.1080919E-06     6.2502639E+00     5.4509421E-03    -2.5844285E-03     9.7620809E-07     1.2300624E+02     4.3046766E-03     1.7996909E+02   
                   3.0918078E-06    -8.3919549E+01     5.4445173E-06     8.5227083E+01     6.9832940E-01    -1.7999978E+02     1.0709375E-05    -8.9863280E+01   
                   5.3959552E-02    -1.7999940E+02     9.7995892E-06     9.1021219E+01     2.8026569E-02    -3.2489803E-03     1.1669676E-05    -9.4051762E+01   
                   1.8606217E-02    -1.7999767E+02     1.1552039E-05     8.7947827E+01   
                   3.0552217E-02    -1.7999833E+02     5.6806547E-06    -9.8482299E+01     1.2166798E-02     3.1642542E-04     4.9321360E-06     5.5667613E+01   
                   8.7062947E-03    -1.7999594E+02     1.2814299E-06    -6.6125685E+01     6.6575805E-03     3.7265406E-04     2.7651718E-06     5.8421496E+01   
                   5.7022146E-03     1.7999784E+02     3.5015631E-02     1.7999677E+02     4.7427335E-06     8.3583409E+01     5.8678402E-01    -1.6819727E-04   
                   6.5496540E-06    -1.4226262E+02     6.2733226E-02     1.6449392E-04     1.0750916E-05     7.4775868E+01     3.1912739E-02    -1.7999974E+02   
                   5.5350817E-06     1.1582560E+02     2.0906817E-02     4.7947775E-03   
                   1.0695302E-05    -8.2292418E+01     7.0074245E-03    -1.7999664E+02     5.5641973E-06     9.6491654E+01     6.2785801E-03    -2.3711917E-02   
                   2.5264628E-06    -7.1093643E+01     5.1334862E-03    -1.7999324E+02     1.4103435E-06    -1.3185798E+02     4.2417462E-03    -5.6149633E-03   
                   2.5694496E-06     8.4814732E+01     9.2502013E-06    -9.1717295E+01     3.9398259E-02    -1.3608999E-03     9.6472354E-06     8.2862642E+01   
                   4.8867256E-01    -1.7999989E+02     1.2491020E-05    -8.7057652E+01     6.5675886E-02    -1.7999578E+02     1.2992675E-05     9.0081227E+01   
                   3.1191501E-02    -6.6022612E-03     1.3148701E-05    -8.9036649E+01   
                   1.8789121E-02    -1.5027901E-02     2.3993873E-06     4.7808569E+01     8.7049342E-03    -1.7999958E+02     2.3901926E-06    -9.1800633E+01   
                   6.8105141E-03     2.0430400E-03     3.7655241E-06     1.2830768E+02     5.5137086E-03    -1.7999786E+02     1.6467817E-06     6.8194603E+01   
                   5.1606216E-03    -1.8407313E-03     1.9642301E-02    -1.3590402E-02     2.8036111E-06     1.3893801E+02     4.1745045E-02    -1.7999951E+02   
                   5.5092259E-06     9.9098699E+01     4.1250729E-01    -9.8923136E-07     5.8308525E-06    -4.2979396E+01     6.7473802E-02     1.1458982E-03   
                   8.5996732E-06     6.8959143E+01     3.1107148E-02     1.7999975E+02   
                   9.7797600E-06     1.0112598E+02     5.4549659E-03     1.0958458E-02     5.1833814E-06    -9.5979112E+01     5.1284978E-03    -1.7999921E+02   
                   1.7017101E-06     1.0103194E+02     4.3153998E-03     2.2185595E-02     1.3522664E-06     1.2190870E+02     3.7725699E-03    -1.7997677E+02   
                   5.0145012E-06    -8.9292094E+01     1.1872766E-05     9.2883945E+01     1.9228966E-02     1.7999101E+02     1.1676822E-05    -8.6741219E+01   
                   4.4434122E-02    -1.9972435E-03     1.2695605E-05     8.6723480E+01     3.4469342E-01    -1.7999998E+02     1.4278066E-05    -8.8029524E+01   
                   6.6895364E-02     1.7999927E+02     1.4146589E-05     9.3192516E+01   
                   1.3028344E-02     1.7999531E+02     3.9183364E-06     1.3833781E+02     6.6570244E-03     7.4457412E-03     1.5727752E-06    -6.0220469E+01   
                   5.5142510E-03     1.7999510E+02     5.1209010E-06     1.2369696E+02     5.0170442E-03    -3.3613302E-03     2.5043951E-06    -9.1181346E+01   
                   5.1079605E-03    -1.7999659E+02     1.3082758E-02    -1.7999904E+02     8.8741587E-07     9.4855647E+01     2.0319959E-02    -3.2517952E-03   
                   4.3579266E-06     4.6240986E+01     4.3283924E-02    -1.7999881E+02     7.9710107E-06    -1.9856670E+01     2.9036885E-01    -1.0925012E-05   
                   3.7906273E-06     1.1658292E+02     6.5371434E-02     7.8444972E-04   
                   1.4720360E-05    -9.3753954E+01     4.3017610E-03     1.7999357E+02     3.6192193E-06     8.6021308E+01     4.2386681E-03     4.7871614E-02   
                   1.2459619E-06    -8.3271991E+01     3.7702667E-03     1.7999194E+02     9.0612322E-07    -1.0282510E+02     3.3571273E-03    -1.8181129E-03   
                   3.4657768E-06     9.3502002E+01     1.3491190E-05    -8.8058870E+01     1.1934517E-02    -3.7010173E-03     8.3898877E-06     8.9605372E+01   
                   2.1466048E-02    -1.7999367E+02     1.2391397E-05    -8.9575150E+01     4.2078938E-02     2.5602467E-03     1.4669553E-05     8.8072497E+01   
                   2.4227324E-01     1.7999954E+02     1.4451385E-05    -8.9790659E+01   
                   1.0082321E-02     1.0301342E-02     2.9304974E-06     1.7680578E+02     5.7071209E-03     1.7999381E+02     7.3531222E-06     6.6660723E+01   
                   5.1612461E-03     1.2814461E-03     5.6582900E-06    -8.0459392E+01     5.1070056E-03    -1.7999165E+02     3.1166630E-06     1.5778275E+02   
                   7.1235280E-03    -3.7935440E-03     9.8016790E-03     6.9688830E-03     4.0534381E-06     6.5386288E+01     1.2904441E-02    -1.7998852E+02   
                   3.6015402E-06    -6.9926346E+01     2.1131079E-02    -1.1440100E-03     1.0054183E-05     2.0115464E+00     3.9523171E-02     1.7999995E+02   
                   5.5589360E-06     5.8263359E+01     2.0344622E-01     3.5859824E-04   
                   9.0264575E-01     1.4002726E-04     4.7001795E-06     7.3270472E+01     3.5014707E-02    -1.7999814E+02     8.1112028E-06    -8.3675164E+01   
                   1.9637697E-02     3.2341413E-04     8.3805930E-06     9.1059109E+01     1.3076272E-02    -1.7999984E+02     8.4077855E-06    -9.0396150E+01   
                   9.8003554E-03     6.2017181E-04     1.4876050E-01     1.7999961E+02     3.6024650E-06    -1.1948707E+02     4.3382780E-02    -6.8882613E-05   
                   1.0071201E-05     8.8467562E+01     3.1160227E-02    -1.7999920E+02     9.6156466E-06    -7.2537528E+01     2.3799824E-02     2.9686128E-05   
                   6.4666177E-06     7.9785269E+01     1.8483459E-02    -1.7999796E+02   
                   7.2866919E-06    -1.0203938E+02     6.9833332E-01    -1.7999999E+02     4.1215619E-06     8.1853634E+01     3.9399244E-02     1.4101768E-04   
                   1.9106058E-06    -9.5202856E+01     1.9229207E-02    -1.7999879E+02     8.7943578E-07     7.0301760E+01     1.1931725E-02    -4.0970243E-03   
                   1.5785613E-06     8.7799392E+01     5.9698981E-06    -1.0061728E+02     2.1307290E-02     1.7999838E+02     1.2564645E-05     8.7140732E+01   
                   2.0523287E-02     4.2449146E-04     1.2181770E-05    -8.8590081E+01     1.7677993E-02     1.7999875E+02     1.3902651E-05     8.4549704E+01   
                   1.4790139E-02     2.2546229E-03     1.3878218E-05    -9.1019291E+01   
                   6.0116164E-02     4.0873562E-04     7.6594782E-06    -9.2564102E+01     5.8678429E-01    -3.2173501E-05     8.4792085E-06     8.9239213E+01   
                   4.1743707E-02     1.7999958E+02     8.6235985E-06    -8.6933229E+01     2.0317321E-02     6.1988531E-04     9.8194584E-06     8.9438397E+01   
                   1.2904919E-02    -1.7999845E+02     4.3382481E-02     1.0003622E-03     7.5182730E-06     9.1383683E+01     2.3669435E-02    -1.7999759E+02   
                   1.0661514E-05    -9.3988934E+01     2.0057694E-02     1.6117819E-03     1.1892905E-05     8.6794239E+01     1.6708756E-02    -1.7999791E+02   
                   1.0034420E-05    -9.6627898E+01     1.3651319E-02     4.1509801E-03   
                   1.1086287E-05     1.0024949E+02     5.3956513E-02    -1.7999849E+02     6.1220695E-06    -8.2861127E+01     4.8867240E-01     1.7999983E+02   
                   4.0626237E-06     1.0110395E+02     4.4435438E-02     9.4872859E-04     5.6303228E-07    -3.0609946E+01     2.1467241E-02    -1.7999939E+02   
                   2.2205584E-06    -8.2687281E+01     1.0750076E-05     9.0701118E+01     2.0521900E-02    -2.1028693E-03     1.1391991E-05    -9.8421489E+01   
                   2.0797070E-02    -1.7999823E+02     1.4780829E-05     8.9178258E+01     1.8642692E-02    -8.5122694E-04     1.5499545E-05    -8.8840094E+01   
                   1.6044469E-02     1.7999169E+02     1.6873634E-05     9.1680424E+01   
                   3.9074525E-02    -1.7999601E+02     1.0011306E-05     8.9093335E+01     6.2731182E-02     4.3447937E-04     9.9226648E-06    -8.9890689E+01   
                   4.1250551E-01    -2.6913177E-06     1.2433475E-05     9.1435505E+01     4.3281752E-02    -1.7999993E+02     1.2369020E-05    -9.0902434E+01   
                   2.1127638E-02     1.7307448E-04     3.1157603E-02    -1.7999769E+02     1.4529187E-05    -8.7224922E+01     2.0058258E-02     2.1679425E-03   
                   1.1928988E-05     8.2797250E+01     1.8076670E-02    -1.7999688E+02     1.4102593E-05    -8.9295820E+01     1.5689093E-02     3.2846494E-03   
                   1.4223313E-05     9.1611464E+01     1.3096478E-02    -1.7999657E+02   
                   9.9499624E-06    -8.7549249E+01     2.8025019E-02    -2.3848824E-03     5.3402222E-06     1.0182771E+02     6.5677418E-02    -1.7999971E+02   
                   3.0979832E-06    -8.7574802E+01     3.4469491E-01    -1.7999999E+02     5.2364465E-07    -1.5519906E+01     4.2078366E-02    -3.5282422E-04   
                   2.9836394E-06     8.5794338E+01     1.1939142E-05    -8.7510210E+01     1.7676431E-02    -1.7998893E+02     1.2158896E-05     9.7958269E+01   
                   1.8644061E-02    -4.4003209E-03     1.4190239E-05    -8.9302383E+01     1.7299570E-02     1.7999978E+02     1.7208226E-05     9.2991634E+01   
                   1.5179620E-02     4.3179518E-03     1.7808408E-05    -8.6963133E+01   
                   2.8681034E-02     1.2270439E-03     1.0564796E-05    -8.8490150E+01     3.1913319E-02    -1.7999944E+02     1.4696659E-05     9.0446943E+01   
                   6.7473110E-02     2.9772106E-04     1.2882186E-05    -8.6768645E+01     2.9036829E-01    -6.5158980E-05     1.2121029E-05     8.8246913E+01   
                   3.9520098E-02    -1.7999973E+02     2.3799659E-02     4.3274924E-03     1.0338034E-05     9.0298659E+01     1.6709514E-02    -1.7999809E+02   
                   1.7224587E-05    -9.0955888E+01     1.5691031E-02     2.5924434E-03     1.6076255E-05     9.0379303E+01     1.3715331E-02    -1.7999376E+02   
                   1.4995321E-05    -8.6521694E+01     1.1676533E-02     5.1222137E-03   
                   9.1066457E-06     7.3993370E+01     1.8602450E-02     1.7999885E+02     3.3943404E-06    -1.0047602E+02     3.1187678E-02    -2.4523504E-03   
                   1.6113421E-06     8.6510749E+01     6.6888585E-02     1.7999991E+02     7.0520877E-07    -1.0209202E+02     2.4227709E-01    -1.7999974E+02   
                   2.2906432E-06    -9.4440767E+01     1.1271774E-05     9.2727070E+01     1.4791034E-02    -3.9616802E-03     9.2759959E-06    -7.9388215E+01   
                   1.6045500E-02     1.7999861E+02     1.3749887E-05     9.0206039E+01     1.5173484E-02     5.2542009E-04     1.6778447E-05    -9.2246581E+01   
                   1.3657858E-02    -1.7999909E+02     1.5882305E-05     8.7279660E+01   
                   2.1811192E-02     1.7999964E+02     1.0577306E-05     8.6914366E+01     2.0908412E-02     2.4131417E-03     1.4012518E-05    -8.9457689E+01   
                   3.1106723E-02     1.7999989E+02     1.5610760E-05     8.8532861E+01     6.5370591E-02    -1.3309973E-04     1.5692201E-05    -8.9595097E+01   
                   2.0344447E-01     3.2325247E-05     1.8484624E-02    -1.7999855E+02     1.2508371E-05    -8.0973818E+01     1.3650044E-02     7.1998846E-03   
                   1.7756455E-05     8.8145921E+01     1.3094522E-02    -1.7999693E+02     1.7722540E-05    -8.7597386E+01     1.1678671E-02     4.4039628E-03   
                   1.8535445E-05     9.1359815E+01     9.2437536E-03    -1.7999141E+02   
  4.5000000E+09     9.4665888E-01    -1.1899000E+02     1.3220561E-05     2.4129274E+01     5.6076037E-02     1.1679722E+02     1.8563632E-05    -1.5138082E+02   
                   3.3040338E-02    -6.1521059E+01     1.6802356E-05     3.2114573E+01     2.2493973E-02     1.1920990E+02     1.6025133E-05    -1.4789855E+02   
                   1.7148800E-02    -6.0233110E+01     1.2868851E+00    -1.4676826E+01     1.6671215E-05    -1.4163791E+02     9.0282243E-02    -5.5022985E+01   
                   1.8060173E-05     4.1059515E+01     6.1098715E-02     1.2324656E+02     1.8023899E-05    -1.5183230E+02     4.5587221E-02    -5.7443072E+01   
                   1.0648029E-05     9.1218690E+00     3.4970810E-02     1.2219179E+02   
                   2.1726308E-05     1.7843339E+01     6.6414791E-03     1.3196538E+01     2.1003938E-06    -9.2968463E+01     6.4324564E-03    -1.7277991E+02   
                   8.8718676E-07     7.1770354E+01     5.1104107E-03     5.8659989E+00     8.5520615E-07     7.3860891E+01     4.0769976E-03    -1.7477682E+02   
                   3.8635322E-06    -1.1320245E+02     2.7035982E-05     6.4518978E+01     7.0680539E-01     1.7982482E+02     9.4815094E-06    -8.4826753E+01   
                   5.3706602E-02    -1.7850246E+02     9.3336677E-06     1.0449834E+02     2.7668913E-02     2.1750457E+00     1.1774752E-05    -8.7203467E+01   
                   1.8281431E-02    -1.7746040E+02     1.2287893E-05     9.4248813E+01   
                   5.6091071E-02     1.1679987E+02     9.7637555E-06    -6.4137336E+01     1.3298111E-02    -1.3144826E+01     3.0788878E-06     7.2539524E+01   
                   9.3198317E-03     1.6913740E+02     5.7211870E-06    -1.0256408E+02     7.0587522E-03    -9.6805873E+00     3.6726364E-06     7.6304653E+01   
                   5.9992930E-03     1.7137242E+02     7.7822068E-02     1.6532045E+02     1.1491158E-05     8.8139904E+01     5.9025296E-01     4.3413405E-01   
                   1.4908198E-05    -1.3040188E+02     6.3810448E-02    -2.7741194E+00     1.1473050E-05     4.6448885E+01     3.2649548E-02     1.7591885E+02   
                   3.4243371E-06    -1.4766608E+01     2.1460052E-02    -4.7823974E+00   
                   1.6824968E-05    -1.3119277E+02     6.4298191E-03    -1.7275464E+02     3.0355258E-06     9.5272556E+01     6.0364357E-03     4.0652816E+00   
                   2.4479295E-06    -4.3946979E+01     4.9922353E-03    -1.7679670E+02     3.5188930E-07    -1.2718293E+02     4.1433563E-03     2.7323674E+00   
                   4.0705753E-06     7.7772862E+01     1.3634773E-05    -1.1103590E+02     4.0062141E-02    -1.6492636E+00     1.1799223E-05     9.9022825E+01   
                   4.9161943E-01     1.7991271E+02     1.2995457E-05    -9.3587702E+01     6.5736118E-02    -1.7951205E+02     1.6144211E-05     1.0330394E+02   
                   3.1130637E-02     8.0293687E-01     1.4225502E-05    -8.9217350E+01   
                   3.3036796E-02    -6.1523815E+01     5.4131703E-06    -3.5111400E+01     9.3230472E-03     1.6915063E+02     5.5661950E-06    -1.1433537E+02   
                   7.1387002E-03    -8.2046761E+00     2.3237063E-06     3.3068574E+01     5.7296104E-03     1.7309507E+02     1.6640110E-06     3.7649205E+01   
                   5.3206045E-03    -5.6252384E+00     4.5127011E-02    -1.4675966E+01     3.7719148E-06     1.2493976E+02     4.1573516E-02    -1.7642600E+02   
                   6.5547000E-06    -4.7848590E+01     4.1397568E-01     2.4810838E-01     7.3746289E-06    -5.6663883E+01     6.8017353E-02    -1.1326878E+00   
                   1.2834121E-05     9.4237556E+01     3.1444843E-02     1.7810800E+02   
                   1.3718916E-05    -3.1410646E+00     5.1046730E-03     5.8796385E+00     7.0433146E-06    -8.9459854E+01     4.9879545E-03    -1.7677610E+02   
                   3.7629328E-06     7.1566723E+01     4.2295303E-03     2.4284186E+00     2.4572504E-06     1.1065061E+02     3.7176828E-03    -1.7802666E+02   
                   4.2490709E-06    -7.9898052E+01     2.6873795E-05     8.8957432E+01     1.9558178E-02     1.7782905E+02     9.0925088E-06    -7.9680484E+01   
                   4.4819427E-02    -6.2453625E-01     1.5404014E-05     1.1029577E+02     3.4610335E-01     1.7994006E+02     1.7615259E-05    -1.0615302E+02   
                   6.7004702E-02    -1.7976356E+02     1.6902127E-05     8.9530897E+01   
                   2.2518770E-02     1.1921634E+02     3.0321692E-06     3.3737527E+01     7.0579791E-03    -9.6914813E+00     1.0327557E-05    -1.1892226E+02   
                   5.7298959E-03     1.7309183E+02     1.0310834E-06     1.4885774E+01     5.1561530E-03    -5.1926422E+00     1.3630224E-06    -6.1662481E+01   
                   5.2157541E-03     1.7611332E+02     3.0541977E-02     1.6530591E+02     7.2321796E-06     1.0470896E+02     2.0170359E-02     4.9973733E+00   
                   7.0827580E-06    -1.1035848E+02     4.3226916E-02    -1.7839235E+02     8.5019932E-06    -3.1945061E+01     2.9111383E-01     1.7995269E-01   
                   5.6263461E-06     7.9302881E+01     6.5705380E-02    -6.1363348E-01   
                   4.7152866E-05    -1.3539818E+02     4.0788761E-03    -1.7479829E+02     2.5048338E-06     5.3000873E+01     4.1442490E-03     2.6751297E+00   
                   1.8706648E-06    -7.4853159E+01     3.7208577E-03    -1.7802809E+02     8.7703662E-07    -1.5149819E+02     3.3270307E-03     1.5564670E+00   
                   4.4984156E-06     8.9102230E+01     2.4504510E-05    -1.3911148E+02     1.2144340E-02    -2.5214411E+00     1.1932919E-05     8.7257072E+01   
                   2.1658124E-02     1.7909005E+02     1.4807102E-05    -1.0489104E+02     4.2309038E-02    -3.4593133E-01     1.5564982E-05     1.2098870E+02   
                   2.4303902E-01     1.7995290E+02     1.4848724E-05    -8.5933759E+01   
                   1.7131489E-02    -6.0247782E+01     5.2733631E-06    -9.5079419E+01     6.0049527E-03     1.7137519E+02     6.1349818E-06    -1.4473798E+02   
                   5.3216904E-03    -5.6334183E+00     7.4617194E-06    -7.5841209E+01     5.2151409E-03     1.7612285E+02     2.2157346E-06     9.7730338E+01   
                   7.2111271E-03    -2.1269156E+00     2.3127920E-02    -1.4643581E+01     5.7139165E-06     1.0095106E+02     1.2787035E-02    -1.7404023E+02   
                   9.1450375E-06    -4.8357794E+01     2.1042538E-02     2.4998290E+00     6.8228695E-06     1.4307460E+01     3.9507379E-02    -1.7900385E+02   
                   9.7676509E-06     7.4389564E+01     2.0385064E-01     1.4901008E-01   
                   1.2868886E+00    -1.4676845E+01     1.7087089E-05     7.0177270E+01     7.7791716E-02     1.6532328E+02     2.7925256E-05    -1.0537397E+02   
                   4.5135060E-02    -1.4677499E+01     2.2070424E-05     7.7092388E+01     3.0512616E-02     1.6532249E+02     2.1377537E-05    -1.0563790E+02   
                   2.3135624E-02    -1.4674887E+01     9.9999814E-01     6.0646247E+01     1.9502580E-05    -1.0090652E+02     1.1497190E-01    -1.4675840E+01   
                   2.5763637E-05     8.0039921E+01     7.9415016E-02     1.6532477E+02     2.1849938E-05    -1.0670509E+02     5.9716511E-02    -1.4674756E+01   
                   1.2463652E-05     6.4714214E+01     4.5996113E-02     1.6532582E+02   
                   2.4733040E-05    -1.4796468E+02     7.0680157E-01     1.7982467E+02     5.6464311E-06     7.1394950E+01     4.0061938E-02    -1.6480838E+00   
                   3.5951798E-06    -1.1151762E+02     1.9563011E-02     1.7781709E+02     1.6005464E-06     4.6001637E+01     1.2139639E-02    -2.4893842E+00   
                   2.4162511E-06     1.3047681E+02     3.4579694E-05    -1.0299840E+02     2.1079029E-02     1.7159641E+02     1.1730096E-05     9.7505627E+01   
                   2.0736348E-02    -5.5536301E+00     1.3094421E-05    -8.3730419E+01     1.7917156E-02     1.7521084E+02     1.4749818E-05     9.2313394E+01   
                   1.5008941E-02    -4.4173893E+00     1.5381655E-05    -8.8449405E+01   
                   9.0281499E-02    -5.5025568E+01     7.8593210E-06    -7.6345804E+01     5.9025092E-01     4.3405018E-01     1.0408519E-05     9.8826698E+01   
                   4.1572921E-02    -1.7642191E+02     1.0941602E-05    -8.1921341E+01     2.0168565E-02     4.9895954E+00     1.0204129E-05     9.8700314E+01   
                   1.2788228E-02    -1.7403050E+02     1.1496893E-01    -1.4676205E+01     1.1593932E-05     9.3698324E+01     2.3664575E-02    -1.6378022E+02   
                   1.2782522E-05    -8.5794859E+01     1.9897284E-02     1.3267953E+01     1.0981485E-05     9.7044707E+01     1.6538156E-02    -1.6801684E+02   
                   1.4861430E-05    -8.5319246E+01     1.3499075E-02     1.1298773E+01   
                   8.7046337E-06     3.5454677E+01     5.3700264E-02    -1.7849548E+02     5.1489232E-06    -1.0134790E+02     4.9162751E-01     1.7991249E+02   
                   2.6990329E-06     7.8809864E+01     4.4811768E-02    -6.2215668E-01     1.7746878E-06    -1.4377848E+02     2.1666207E-02     1.7909320E+02   
                   2.3731982E-06    -6.6630610E+01     1.1725571E-05     7.3394778E+01     2.0735179E-02    -5.5584507E+00     1.4766315E-05    -9.1131420E+01   
                   2.1117927E-02     1.7644258E+02     1.6281184E-05     9.3060232E+01     1.8919730E-02    -2.9568639E+00     1.8559637E-05    -8.7770513E+01   
                   1.6277506E-02     1.7734493E+02     1.8380198E-05     9.0343281E+01   
                   6.1098948E-02     1.2324694E+02     9.3337553E-06     9.1627889E+01     6.3808371E-02    -2.7738595E+00     1.2903616E-05    -8.0948049E+01   
                   4.1397785E-01     2.4803565E-01     1.3697679E-05     9.1442614E+01     4.3222790E-02    -1.7839373E+02     1.5596498E-05    -8.6965606E+01   
                   2.1041273E-02     2.5024368E+00     7.9412178E-02     1.6532377E+02     1.2755141E-05    -8.2960352E+01     1.9897868E-02     1.3266688E+01   
                   1.3923680E-05     9.1506878E+01     1.7850580E-02    -1.6982045E+02     1.5583751E-05    -8.8085198E+01     1.5483692E-02     8.8127795E+00   
                   1.4730572E-05     9.0699575E+01     1.2922999E-02    -1.7187047E+02   
                   1.9287947E-05    -1.5190566E+02     2.7665491E-02     2.1762100E+00     7.3507407E-06     7.3225074E+01     6.5736511E-02    -1.7951322E+02   
                   3.0701649E-06    -1.0802743E+02     3.4610651E-01     1.7994005E+02     1.2823168E-06    -5.4567887E+00     4.2315821E-02    -3.4715660E-01   
                   2.4758519E-06     1.2912491E+02     2.9804540E-05    -1.0665736E+02     1.7918914E-02     1.7521649E+02     1.2980869E-05     9.5739216E+01   
                   1.8925003E-02    -2.9534847E+00     1.6669231E-05    -8.7579554E+01     1.7538061E-02     1.7762368E+02     1.8460944E-05     8.8589904E+01   
                   1.5366410E-02    -2.1031167E+00     2.0127734E-05    -8.8922797E+01   
                   4.5587631E-02    -5.7443825E+01     1.2013683E-05    -8.9189392E+01     3.2646579E-02     1.7592178E+02     1.5673835E-05     9.1246883E+01   
                   6.8020012E-02    -1.1349896E+00     1.4173407E-05    -8.6448132E+01     2.9111395E-01     1.7936895E-01     1.5231859E-05     9.5092160E+01   
                   3.9501179E-02    -1.7899759E+02     5.9714485E-02    -1.4675190E+01     1.3301602E-05     9.8121834E+01     1.6537816E-02    -1.6801515E+02   
                   1.7162807E-05    -8.4191673E+01     1.5485793E-02     8.8129627E+00     1.6667174E-05     9.6184978E+01     1.3535447E-02    -1.7242402E+02   
                   1.9050007E-05    -9.1385548E+01     1.1524689E-02     6.8503773E+00   
                   1.6829122E-05     3.0253877E+01     1.8275680E-02    -1.7745025E+02     3.6112218E-06    -1.1272930E+02     3.1125525E-02     7.9583509E-01   
                   3.3658138E-06     8.5981596E+01     6.6989239E-02    -1.7975967E+02     1.1842524E-06    -1.2284483E+02     2.4303708E-01     1.7995322E+02   
                   2.8826339E-06    -7.7322915E+01     2.3310805E-05     7.2179573E+01     1.5009077E-02    -4.4318488E+00     1.0283694E-05    -8.2870963E+01   
                   1.6278748E-02     1.7734539E+02     1.8190844E-05     9.2817808E+01     1.5366827E-02    -2.1028355E+00     1.7173364E-05    -8.3036705E+01   
                   1.3816742E-02     1.7819983E+02     1.9293105E-05     9.5312626E+01   
                   3.4975377E-02     1.2219174E+02     1.2349119E-05     8.8741563E+01     2.1460743E-02    -4.7819974E+00     1.3217260E-05    -8.7081376E+01   
                   3.1445182E-02     1.7810827E+02     1.6819480E-05     9.4679483E+01     6.5703225E-02    -6.1186262E-01     1.3650889E-05    -8.9043478E+01   
                   2.0384833E-01     1.4959211E-01     4.6002079E-02     1.6532574E+02     1.3977724E-05    -8.7675853E+01     1.3496638E-02     1.1304518E+01   
                   1.4486259E-05     9.9915087E+01     1.2922582E-02    -1.7186922E+02     2.0306054E-05    -8.6963401E+01     1.1525761E-02     6.8489189E+00   
                   1.6219230E-05     8.9989408E+01     9.1208322E-03    -1.7333275E+02   
  5.0000000E+09     7.2169734E-02     1.7010012E+02     9.4668002E-06     3.1629770E+01     3.0491623E-02     1.2252335E+02     1.0422649E-05    -1.2042411E+02   
                   1.7909289E-02    -5.3932026E+01     1.2292806E-05     5.6778021E+01     1.2175547E-02     1.2757974E+02     1.1655278E-05    -1.5777114E+02   
                   9.2749891E-03    -5.1269967E+01     9.9738931E-01    -5.1032835E+00     1.2826762E-05    -1.0510681E+02     4.8800239E-02    -4.0429388E+01   
                   1.2105572E-05     4.6938534E+01     3.3001302E-02     1.3593223E+02     7.9770977E-06    -1.5972631E+02     2.4617476E-02    -4.5511367E+01   
                   1.2189055E-05     1.0064898E+02     1.8882938E-02     1.3374600E+02   
                   7.7255441E-06     2.9703346E+01     5.9896354E-03     6.9242803E+00     5.7732800E-06    -1.0136537E+02     6.3954284E-03    -1.7660134E+02   
                   2.4167540E-06     1.0291276E+02     5.1441090E-03     2.6920628E+00     1.5378432E-06     7.1655478E+01     4.1257576E-03    -1.7763148E+02   
                   3.7182462E-06    -9.9372842E+01     1.5184886E-05     1.8206533E+01     7.1461641E-01     1.7991905E+02     1.4607223E-05    -8.8461030E+01   
                   5.4714974E-02    -1.7931986E+02     1.4507469E-05     8.8468827E+01     2.8201484E-02     1.0029668E+00     1.4450397E-05    -9.3197558E+01   
                   1.8644387E-02    -1.7885345E+02     1.1247107E-05     9.5559229E+01   
                   3.0489254E-02     1.2251221E+02     7.8251508E-06    -1.2175462E+02     1.1972236E-02    -4.7850968E+00     4.8359555E-06     5.1722122E+01   
                   8.5071944E-03     1.7605340E+02     2.8402484E-06    -8.3938455E+01     6.5026446E-03    -3.5167807E+00     6.6798113E-06     1.1694347E+02   
                   5.5760862E-03     1.7688276E+02     3.2705859E-02     1.4135402E+02     3.4008577E-06     1.4986431E+01     5.9777372E-01     1.4733331E-01   
                   8.3793604E-06     1.5680312E+02     6.2514449E-02    -9.6427457E-01     1.2679318E-05     7.8386090E+01     3.1571682E-02     1.7856800E+02   
                   7.6339731E-06     9.1358713E+01     2.0605672E-02    -1.6951819E+00   
                   9.6858447E-06    -1.6709267E+02     6.3941793E-03    -1.7665810E+02     3.6800431E-06     5.6972335E+01     6.1323878E-03     1.8197679E+00   
                   1.9770363E-06    -4.8461148E+01     5.0712696E-03    -1.7855281E+02     2.2900476E-06    -1.2521378E+02     4.2101298E-03     1.2479768E+00   
                   3.9784825E-06     1.0221126E+02     6.3352179E-06    -6.9334574E+01     3.9697256E-02    -7.6985772E-01     1.2890520E-05     9.7604816E+01   
                   4.9427069E-01     1.7996030E+02     1.2300268E-05    -7.9288706E+01     6.6347435E-02    -1.7979095E+02     1.7987519E-05     9.7233327E+01   
                   3.1460033E-02     3.6815908E-01     1.9532136E-05    -9.6157872E+01   
                   1.7915731E-02    -5.3934222E+01     1.1573652E-05    -1.2348693E+02     8.5092273E-03     1.7602826E+02     3.7663769E-06     1.0661927E+02   
                   6.6493635E-03    -2.9748032E+00     6.3647952E-06     9.8371532E+01     5.3925084E-03     1.7750263E+02     1.8962876E-06    -8.3158941E+01   