! S-parameter export from POSTFEKO
! Filename: circular_2wg_7modes
! Creation date: 2019-12-29 17:07:23
! 
# Hz S MA R    5.0000000E+01 
  4.0000000E+09     1.2741468E-01    -4.7559167E-04     3.1635210E-06     2.0963277E+01     3.1005045E-02    -1.7999897E+02     1.0981944E-05    -1.0066749E+02   
                   1.9444515E-02    -1.4465557E-03     8.3614034E-06     9.2644441E+01     1.4389088E-02    -1.7999954E+02     9.0299527E-01    -1.2288229E-04   
                   7.0753136E-06    -1.0074793E+02     5.9765651E-02    -5.5382094E-04     1.0176800E-05     7.8803170E+01     3.8683458E-02     1.7999988E+02   
                   6.7249597E-06    -7.2049738E+01     2.8205610E-02     5.2188288E-03   
                   8.1740593E-06     9.8257503E+01     8.1899267E-03     2.0836991E-02     2.9592992E-06    -8.2659638E+01     7.2682393E-03     1.7999491E+02   
                   5.7704209E-07     1.7096168E+02     5.8396489E-03     2.0472400E-04     1.4552877E-06     9.9304011E+01     5.7470958E-06     9.6761411E+01   
                   6.9850499E-01    -1.7999999E+02     6.6320428E-06    -8.9655063E+01     5.3760832E-02     1.7999992E+02     9.6591336E-06     8.7187514E+01   
                   2.7824946E-02    -9.1826499E-03     9.5919025E-06    -8.4176199E+01   
                   3.1005305E-02     1.7999679E+02     4.4572073E-06    -9.2427098E+01     1.2602773E-02    -5.0164936E-04     3.0216404E-06     7.4844747E+01   
                   9.3486088E-03    -1.7999918E+02     3.0703419E-06    -1.1791997E+02     7.9988055E-03     5.7681212E-04     3.5398403E-02     1.7999594E+02   
                   3.0940043E-06     7.5576700E+01     5.8708327E-01    -1.0940629E-04     4.9337935E-06    -9.9802194E+01     6.2431926E-02     5.1025345E-04   
                   9.0799483E-06     6.6886484E+01     3.1612928E-02     1.7999947E+02   
                   9.1422482E-06    -9.2783458E+01     7.2665308E-03     1.7999583E+02     2.1891223E-06     8.7885242E+01     6.6590264E-03     4.3058296E-03   
                   1.5193374E-06    -1.0074553E+02     5.7088294E-03    -1.7999697E+02     1.2079898E-06    -7.9814260E+01     7.7471428E-06    -8.9265349E+01   
                   3.9642754E-02     3.7545504E-04     9.2412938E-06     9.1505762E+01     4.8893935E-01     1.7999984E+02     1.1454490E-05    -9.1385852E+01   
                   6.5415521E-02    -1.7999851E+02     1.3216947E-05     9.0219639E+01   
                   1.9448705E-02     1.9138244E-03     1.7145017E-06     1.3532285E+02     9.3472377E-03     1.7999370E+02     2.4647207E-06    -9.3428207E+01   
                   7.7704781E-03    -2.6482920E-03     1.7868179E-07    -4.0165823E+01     7.5373944E-03    -1.7999690E+02     2.0197592E-02    -3.8638194E-03   
                   4.3314008E-06     1.4525902E+02     4.2153253E-02     1.7999980E+02     1.7398629E-06     6.7823129E+01     4.1289022E-01     7.3817412E-07   
                   1.6467301E-06    -9.7273416E+01     6.7156016E-02     8.4274634E-05   
                   9.5434491E-06     9.0876135E+01     5.8398330E-03    -1.7251601E-02     3.6001512E-06    -1.0581179E+02     5.7069076E-03    -1.7999678E+02   
                   1.2467245E-06     5.7617202E+01     5.1767702E-03     5.7783322E-03     1.7515506E-06     8.7992645E+01     9.6975654E-06     8.3397178E+01   
                   1.9579554E-02     1.7999627E+02     9.8186127E-06    -9.1720322E+01     4.4812840E-02     1.3405672E-03     1.2388554E-05     9.2550714E+01   
                   3.4504483E-01     1.7999980E+02     1.3614972E-05    -9.0891349E+01   
                   1.4395279E-02     1.7999506E+02     2.2252514E-06     1.1893275E+02     7.9990042E-03    -2.3043650E-03     2.5517819E-06    -9.8737454E+01   
                   7.5371324E-03     1.7999651E+02     3.0335078E-06     1.0573541E+02     9.3203079E-03     1.3679675E-03     1.4222353E-02    -1.7999943E+02   
                   9.2220044E-07    -1.1552012E+02     2.1117004E-02     3.7547567E-04     3.8263229E-06     8.7567266E+01     4.3975642E-02    -1.7999915E+02   
                   2.8785200E-06    -7.7527460E+01     2.9081055E-01    -2.1792367E-05   
                   9.0299828E-01    -2.5350173E-05     6.1718360E-06     7.9452578E+01     3.5396380E-02     1.7999958E+02     9.4000057E-06    -9.1713191E+01   
                   2.0195780E-02    -2.8166257E-04     8.2178542E-06     8.7234401E+01     1.4219207E-02    -1.7999895E+02     1.4846044E-01    -1.7999946E+02   
                   7.5031281E-06    -1.1123607E+02     4.3073264E-02     1.2610004E-03     1.0729388E-05     8.4011995E+01     3.0803012E-02     1.7999932E+02   
                   8.3849530E-06    -6.6514374E+01     2.3346809E-02     3.8882620E-03   
                   8.8834078E-06    -8.8245070E+01     6.9850257E-01    -1.7999978E+02     3.6886084E-06     9.8351948E+01     3.9639737E-02     8.3517378E-04   
                   2.1900891E-06    -8.0997006E+01     1.9576485E-02     1.7999890E+02     3.2748237E-07    -1.1267274E+02     7.1692155E-06    -9.1491358E+01   
                   2.1113452E-02    -1.7999917E+02     8.9000788E-06     9.3023867E+01     2.0284620E-02     1.5818239E-03     1.2108072E-05    -9.2909460E+01   
                   1.7398915E-02     1.7999308E+02     1.2372653E-05     9.4909916E+01   
                   5.9764601E-02     4.6627931E-04     6.8651173E-06    -7.9951501E+01     5.8708268E-01    -2.2386293E-05     8.4088792E-06     8.6719617E+01   
                   4.2151959E-02     1.7999967E+02     9.9168030E-06    -9.1087414E+01     2.1115286E-02     3.7054345E-04     4.3070761E-02     1.4808361E-03   
                   7.7151458E-06     9.6445653E+01     2.3376729E-02    -1.7999763E+02     1.0803825E-05    -9.3415694E+01     1.9683982E-02     2.4782327E-03   
                   1.1473574E-05     9.1817356E+01     1.6154353E-02    -1.7999508E+02   
                   8.0078118E-06     8.6086757E+01     5.3761766E-02    -1.7999783E+02     4.4007246E-06    -9.4621845E+01     4.8893818E-01     1.7999988E+02   
                   2.5072072E-06     8.7354047E+01     4.4813004E-02    -2.4249941E-04     4.1074446E-07     1.3984089E+02     8.1799395E-06     9.3739720E+01   
                   2.0285244E-02    -1.2660514E-03     1.1212827E-05    -9.1012789E+01     2.0488075E-02    -1.7999718E+02     1.4382950E-05     9.0363963E+01   
                   1.8256294E-02     3.2083986E-03     1.6061760E-05    -9.1736809E+01   
                   3.8681051E-02    -1.7999931E+02     1.0359890E-05     8.8383260E+01     6.2431836E-02    -3.1098966E-04     9.7481898E-06    -8.8495500E+01   
                   4.1288811E-01    -2.7729400E-05     1.1539353E-05     8.7368743E+01     4.3973064E-02     1.7999986E+02     3.0799403E-02    -1.7999944E+02   
                   1.0536412E-05    -8.6284767E+01     1.9684243E-02     2.0429274E-03     1.2880735E-05     9.2975054E+01     1.7546253E-02    -1.7999702E+02   
                   1.4582287E-05    -9.5086954E+01     1.4816292E-02     4.6722839E-03   
                   7.4896402E-06    -9.9118634E+01     2.7824820E-02     4.0102964E-03     4.6423322E-06     7.6057872E+01     6.5413789E-02    -1.7999970E+02   
                   1.8183119E-06    -1.0109792E+02     3.4504553E-01    -1.7999993E+02     1.1556500E-06    -8.0850019E+01     1.0169258E-05    -1.0060201E+02   
                   1.7398941E-02    -1.7999183E+02     1.1384530E-05     8.6189546E+01     1.8257761E-02    -2.6228101E-04     1.4730400E-05    -8.5189931E+01   
                   1.6785829E-02    -1.7999930E+02     1.6957916E-05     8.7139127E+01   
                   2.8205799E-02    -1.0542598E-03     9.4688013E-06    -8.7206706E+01     3.1611945E-02    -1.7999824E+02     1.3964412E-05     8.7213931E+01   
                   6.7155593E-02    -5.0230149E-05     1.2336659E-05    -9.0356732E+01     2.9080915E-01     2.7118205E-05     2.3346533E-02     3.2199320E-03   
                   1.2116849E-05     8.8117729E+01     1.6155120E-02    -1.7999760E+02     1.6642770E-05    -9.0373526E+01     1.4816660E-02     4.9741632E-03   
                   1.5124160E-05     8.7121655E+01     1.2128373E-02    -1.7999679E+02   
  4.5000000E+09     9.4762468E-01    -1.1898759E+02     1.5809659E-05     2.6845907E+01     5.6810285E-02     1.1681560E+02     1.5326348E-05    -1.4293107E+02   
                   3.4104811E-02    -6.1453650E+01     1.7316544E-05     3.2114651E+01     2.4674590E-02     1.1943899E+02     1.2875612E+00    -1.4725233E+01   
                   1.3234303E-05    -1.5665905E+02     8.9713596E-02    -5.5050521E+01     1.5218662E-05     2.5714545E+01     6.0455718E-02     1.2322307E+02   
                   1.2220231E-05    -1.6103311E+02     4.4791115E-02    -5.7448461E+01   
                   1.1472470E-05     2.4567658E+01     6.8156239E-03     1.3027093E+01     2.5876397E-06    -9.3391035E+01     6.6859603E-03    -1.7289728E+02   
                   7.9394373E-07     8.1592924E+01     5.4922777E-03     5.6884687E+00     2.1026387E-06     1.1003759E+02     1.2053833E-05     7.0794128E+01   
                   7.0696529E-01     1.7982440E+02     9.6459120E-06    -8.7222354E+01     5.3509641E-02    -1.7848877E+02     9.5076376E-06     9.0023032E+01   
                   2.7472741E-02     2.1842764E+00     1.1680384E-05    -8.7035700E+01   
                   5.6814278E-02     1.1681588E+02     1.8359980E-06    -1.0666895E+02     1.3755609E-02    -1.3031816E+01     5.2464571E-06     7.0085526E+01   
                   9.9831400E-03     1.6942473E+02     4.6429217E-06    -9.3879222E+01     8.4378966E-03    -8.9628117E+00     7.8754978E-02     1.6527466E+02   
                   6.9983889E-06     1.0183254E+02     5.9055018E-01     4.3631999E-01     6.8767749E-06    -8.8589828E+01     6.3504561E-02    -2.7920221E+00   
                   4.4497061E-06     8.4563789E+01     3.2338089E-02     1.7590557E+02   
                   1.5902737E-05    -1.5029795E+02     6.6825012E-03    -1.7290066E+02     3.1798862E-06     7.5582885E+01     6.4179852E-03     3.9738702E+00   
                   1.9255638E-06    -8.0485683E+01     5.5656777E-03    -1.7699287E+02     1.3152330E-06    -9.1036490E+01     2.1618174E-05    -1.0403339E+02   
                   4.0301427E-02    -1.6585500E+00     9.7780279E-06     1.0173597E+02     4.9189852E-01     1.7991166E+02     1.3430164E-05    -8.7844760E+01   
                   6.5475476E-02    -1.7950681E+02     1.4340515E-05     9.4467838E+01   
                   3.4118207E-02    -6.1451929E+01     1.8789633E-06    -2.1154390E+01     9.9829917E-03     1.6942040E+02     2.6600570E-06    -9.4092884E+01   
                   8.1173937E-03    -7.6625614E+00     3.2854343E-06     7.8392217E+01     7.7798519E-03     1.7426569E+02     4.6547547E-02    -1.4724831E+01   
                   2.2090306E-06    -1.2194672E+01     4.1982429E-02    -1.7636802E+02     5.6347459E-06     1.2182733E+02     4.1435852E-01     2.5277251E-01   
                   5.6766564E-06    -1.2170221E+02     6.7703195E-02    -1.1551722E+00   
                   2.3194456E-05     3.1239389E+01     5.4883712E-03     5.7157973E+00     4.7513903E-06    -1.0373234E+02     5.5629955E-03    -1.7695683E+02   
                   2.5314387E-06     8.8753462E+01     5.0946491E-03     2.1864352E+00     2.1797254E-06     6.2901260E+01     2.6987212E-05     7.4655571E+01   
                   1.9913976E-02     1.7778071E+02     1.0900430E-05    -7.5138994E+01     4.5195868E-02    -6.3334260E-01     1.4243134E-05     9.4255459E+01   
                   3.4646205E-01     1.7993853E+02     1.4873641E-05    -8.5983188E+01   
                   2.4676544E-02     1.1943876E+02     2.9138199E-06     5.8749662E+01     8.4380256E-03    -8.9645517E+00     5.5448158E-06    -1.0837826E+02   
                   7.7798894E-03     1.7426804E+02     4.2005048E-06     8.9041287E+01     9.4969925E-03    -3.3664318E+00     3.3383417E-02     1.6527441E+02   
                   1.9593478E-06     8.1901237E+01     2.0959436E-02     5.2210580E+00     2.6881013E-06     1.2012727E+02     4.3905919E-02    -1.7828912E+02   
                   1.2315883E-06    -6.3834626E+01     2.9154610E-01     1.9238292E-01   
                   1.2875614E+00    -1.4725195E+01     2.2243705E-05     6.7985476E+01     7.8755132E-02     1.6527437E+02     2.0904960E-05    -9.9150555E+01   
                   4.6535161E-02    -1.4725797E+01     2.3653649E-05     7.7736033E+01     3.3378863E-02     1.6527469E+02     9.9999552E-01     6.0549799E+01   
                   1.6655672E-05    -1.1478172E+02     1.1422152E-01    -1.4725150E+01     2.1452585E-05     7.4189444E+01     7.8558452E-02     1.6527538E+02   
                   1.8499628E-05    -1.1143726E+02     5.8646166E-02    -1.4723839E+01   
                   1.5704504E-05    -1.5045508E+02     7.0696947E-01     1.7982417E+02     5.2130788E-06     7.1636198E+01     4.0303829E-02    -1.6585210E+00   
                   3.1691502E-06    -1.1571940E+02     1.9914229E-02     1.7777957E+02     1.8123480E-06     8.9469728E+00     1.9633420E-05    -1.1038843E+02   
                   2.0884016E-02     1.7157621E+02     1.1044380E-05     9.0925157E+01     2.0494200E-02    -5.5651071E+00     1.3010715E-05    -8.6389884E+01   
                   1.7636416E-02     1.7520466E+02     1.4964964E-05     9.2537399E+01   
                   8.9709270E-02    -5.5049128E+01     7.1483584E-06    -7.8956256E+01     5.9055198E-01     4.3634086E-01     1.0110044E-05     9.9746533E+01   
                   4.1979396E-02    -1.7637056E+02     1.0155462E-05    -8.0929087E+01     2.0956997E-02     5.2189379E+00     1.1421439E-01    -1.4724532E+01   
                   1.1327622E-05     9.0206635E+01     2.3376783E-02    -1.6379682E+02     1.2351108E-05    -8.5065661E+01     1.9529973E-02     1.3283138E+01   
                   1.2734111E-05     9.5761271E+01     1.5992672E-02    -1.6790814E+02   
                   1.4823799E-05     2.5945797E+01     5.3511542E-02    -1.7848943E+02     4.4654236E-06    -1.0608081E+02     4.9190035E-01     1.7991173E+02   
                   3.0284576E-06     6.6671924E+01     4.5195138E-02    -6.3540764E-01     8.6641504E-07     1.5523504E+02     1.8774660E-05     7.7256199E+01   
                   2.0493992E-02    -5.5643296E+00     1.2369504E-05    -8.2685355E+01     2.0795530E-02     1.7644052E+02     1.6934281E-05     8.8493814E+01   
                   1.8525189E-02    -2.9636159E+00     1.7878088E-05    -8.8082715E+01   
                   6.0453825E-02     1.2322232E+02     1.1147690E-05     9.6584983E+01     6.3503067E-02    -2.7919626E+00     1.2045500E-05    -8.9271348E+01   
                   4.1435743E-01     2.5266569E-01     1.1613839E-05     9.5323621E+01     4.3903248E-02    -1.7828880E+02     7.8555738E-02     1.6527572E+02   
                   1.4929352E-05    -8.5591292E+01     1.9531130E-02     1.3282873E+01     1.4610623E-05     9.5999331E+01     1.7330241E-02    -1.6974063E+02   
                   1.6730129E-05    -8.6143722E+01     1.4620488E-02     9.0693702E+00   
                   1.8908440E-05    -1.5181340E+02     2.7472022E-02     2.1855019E+00     4.8965066E-06     8.1237500E+01     6.5473914E-02    -1.7950885E+02   
                   3.0035811E-06    -9.5739403E+01     3.4646337E-01     1.7993859E+02     1.6269302E-06    -6.6583390E+01     2.2839104E-05    -1.0304661E+02   
                   1.7632005E-02     1.7520811E+02     1.3016066E-05     9.6210879E+01     1.8525560E-02    -2.9661521E+00     1.7057326E-05    -8.6954238E+01   
                   1.7012521E-02     1.7760848E+02     1.8556356E-05     9.2058392E+01   
                   4.4788940E-02    -5.7448732E+01     1.1843791E-05    -8.3733465E+01     3.2339413E-02     1.7590588E+02     1.4451630E-05     9.4187119E+01   
                   6.7702259E-02    -1.1546919E+00     1.5282968E-05    -8.5890799E+01     2.9154503E-01     1.9239461E-01     5.8641208E-02    -1.4724105E+01   
                   1.4774686E-05     8.5511269E+01     1.5993389E-02    -1.6791017E+02     1.8669644E-05    -8.8670613E+01     1.4621664E-02     9.0687218E+00   
                   1.8486357E-05     9.2242235E+01     1.1959788E-02    -1.7172872E+02   
  5.0000000E+09     7.2143734E-02     1.7031490E+02     4.3814450E-06     3.5060181E+01     3.0865875E-02     1.2264271E+02     9.2524537E-06    -1.3487882E+02   
                   1.8471431E-02    -5.3712613E+01     9.7841739E-06     4.6156835E+01     1.3345483E-02     1.2813837E+02     9.9739485E-01    -5.1196130E+00   
                   6.1735760E-06    -1.5004003E+02     4.8466818E-02    -4.0394516E+01     1.1541318E-05     3.1417155E+01     3.2631555E-02     1.3596630E+02   
                   1.0716413E-05    -1.3195097E+02     2.4173440E-02    -4.5424385E+01   
                   6.2228507E-06     5.2399372E+01     6.1669415E-03     6.7711257E+00     3.7109658E-06    -6.7168031E+01     6.6543940E-03    -1.7670161E+02   
                   9.7977255E-08    -1.7818842E+02     5.5338551E-03     2.6078496E+00     1.5908223E-06     6.5376049E+01     9.4616408E-06     4.9020647E+01   
                   7.1478070E-01     1.7991889E+02     8.5428475E-06    -9.4542413E+01     5.4525895E-02    -1.7931923E+02     1.2170004E-05     9.7390300E+01   
                   2.8020580E-02     9.8598621E-01     1.3009714E-05    -8.9023651E+01   
                   3.0867418E-02     1.2264468E+02     4.9264298E-06    -1.0728703E+02     1.2392975E-02    -4.7365821E+00     2.9312833E-06     7.2225451E+01   
                   9.1374361E-03     1.7616534E+02     4.7669154E-06    -1.0077357E+02     7.8261210E-03    -3.2338686E+00     3.3109272E-02     1.4123320E+02   
                   6.2107534E-06     9.5613334E+01     5.9809779E-01     1.4824705E-01     3.4928482E-06    -1.0019918E+02     6.2200225E-02    -9.7652924E-01   
                   5.6446330E-06     8.5746834E+01     3.1263276E-02     1.7855442E+02   
                   1.3422929E-05    -1.3583654E+02     6.6571263E-03    -1.7670645E+02     2.7287075E-06     7.7318643E+01     6.5270051E-03     1.7826982E+00   
                   2.2465980E-06    -1.0717403E+02     5.6593969E-03    -1.7864227E+02     2.4277672E-06    -9.9592754E+01     1.3425576E-05    -1.6920365E+02   
                   3.9925737E-02    -7.6852548E-01     1.1812472E-05     9.3355604E+01     4.9454147E-01     1.7996044E+02     1.3190618E-05    -8.7996725E+01   
                   6.6067956E-02    -1.7978203E+02     1.6963159E-05     9.3916468E+01   
                   1.8471255E-02    -5.3712469E+01     3.5525986E-06     1.4227411E+02     9.1376192E-03     1.7614152E+02     3.4930725E-06    -6.7297933E+01   
                   7.5993175E-03    -2.7756470E+00     2.7083458E-06     6.4403624E+01     7.4128974E-03     1.7794865E+02     1.9844623E-02    -4.1930299E+01   
                   2.7913357E-06     1.1022138E+02     4.3851570E-02    -1.7876977E+02     3.4568558E-06     1.0953740E+02     4.1747601E-01     8.7969790E-02   
                   5.1938906E-06    -1.4884036E+02     6.7216495E-02    -4.0531562E-01   
                   8.8470778E-06     4.7704385E+01     5.5312567E-03     2.6137919E+00     8.2924110E-06    -8.7582079E+01     5.6623003E-03    -1.7867279E+02   
                   1.1674517E-06     7.2274690E+01     5.1738894E-03     9.5866587E-01     2.5076395E-06     9.1117240E+01     1.2758710E-05     9.0126103E+01   
                   1.9533636E-02     1.7896774E+02     1.5460002E-05    -8.5236951E+01     4.5144130E-02    -2.8419787E-01     1.4938463E-05     8.7979801E+01   
                   3.4770647E-01     1.7997203E+02     1.7150954E-05    -9.0663972E+01   
                   1.3348256E-02     1.2816539E+02     3.7674759E-06     1.2805939E+02     7.8250865E-03    -3.2348262E+00     1.9887441E-06    -4.8121688E+01   
                   7.4132582E-03     1.7794903E+02     1.2314890E-06     6.1804534E+01     9.2507752E-03    -1.1923742E+00     1.4347195E-02     1.3646657E+02   
                   3.1050098E-06     3.8789958E+01     2.2247263E-02     1.7591097E+00     5.0674319E-06     1.0863980E+02     4.4869103E-02    -1.7940351E+02   
                   6.2458180E-06    -9.2753824E+01     2.9316035E-01     6.7623648E-02   
                   9.9739588E-01    -5.1197326E+00     7.5786098E-06     3.9771630E+01     3.3107179E-02     1.4123305E+02     1.0260573E-05    -1.2725686E+02   
                   1.9844060E-02    -4.1929236E+01     1.1027864E-05     5.4804874E+01     1.4343202E-02     1.3646626E+02     7.2141876E-02    -5.5445211E-01   
                   5.2508549E-06    -1.3129409E+02     5.1921022E-02    -5.3468619E+01     1.2358548E-05     3.8945347E+01     3.5033447E-02     1.2969182E+02   
                   1.1053993E-05    -1.2758508E+02     2.5965517E-02    -4.9093935E+01   
                   7.6651338E-06    -1.3090271E+02     7.1478410E-01     1.7991870E+02     4.3360960E-06     7.6252881E+01     3.9921073E-02    -7.6541659E-01   
                   2.0601768E-06    -1.0046559E+02     1.9536072E-02     1.7897478E+02     7.8415499E-07    -7.0256465E+01     8.6577099E-06    -1.3982134E+02   
                   1.7034056E-02     1.7525003E+02     1.1019321E-05     8.4195207E+01     1.8612367E-02    -2.7860906E+00     1.5078517E-05    -8.9102859E+01   
                   1.6366059E-02     1.7765919E+02     1.6936972E-05     9.1046806E+01   
                   4.8467713E-02    -4.0395618E+01     9.3145347E-06    -8.0887341E+01     5.9809818E-01     1.4817938E-01     1.2186035E-05     9.2048188E+01   
                   4.3850964E-02    -1.7877104E+02     1.3456576E-05    -8.6757083E+01     2.2244980E-02     1.7606881E+00     5.1923624E-02    -5.3470620E+01   
                   1.0608234E-05     8.8953083E+01     2.7995521E-02    -1.7482810E+02     1.3727474E-05    -8.3029584E+01     2.2567120E-02     4.3161204E+00   
                   1.6353532E-05     9.2788983E+01     1.8223423E-02    -1.7604618E+02   
                   1.1281750E-05     3.1546711E+01     5.4523494E-02    -1.7931725E+02     6.5895465E-06    -9.1614702E+01     4.9454092E-01     1.7996040E+02   
                   2.8612839E-06     6.8090352E+01     4.5147653E-02    -2.8561520E-01     1.3955379E-06     1.0364383E+02     1.2563998E-05     4.5402177E+01   
                   1.8609826E-02    -2.7783404E+00     1.5007484E-05    -8.6376548E+01     1.9849003E-02     1.7832755E+02     1.8830509E-05     9.5940223E+01   
                   1.7881240E-02    -1.3696629E+00     2.0398322E-05    -8.8676354E+01   
                   3.2630590E-02     1.3596769E+02     1.1736562E-05     9.0926768E+01     6.2203647E-02    -9.7562290E-01     1.4822277E-05    -9.2007239E+01   
                   4.1747528E-01     8.7985487E-02     1.4882765E-05     9.5518689E+01     4.4863507E-02    -1.7940561E+02     3.5031048E-02     1.2969287E+02   
                   1.5284809E-05    -8.7240646E+01     2.2568815E-02     4.3142441E+00     1.8791356E-05     9.1064639E+01     1.9331134E-02    -1.7659686E+02   
                   1.8395121E-05    -8.2522900E+01     1.6086803E-02     3.0276720E+00   
                   1.1473982E-05    -1.3900743E+02     2.8017614E-02     9.8645352E-01     6.0672750E-06     9.2075581E+01     6.6060854E-02    -1.7978075E+02   
                   2.4629108E-06    -9.9354560E+01     3.4771488E-01     1.7997244E+02     1.5070521E-06    -8.7840131E+01     1.1534687E-05    -1.2663170E+02   
                   1.6362469E-02     1.7765870E+02     1.6430068E-05     8.6543596E+01     1.7881501E-02    -1.3739029E+00     1.7605759E-05    -9.0887439E+01   
                   1.6571643E-02     1.7890463E+02     2.1475486E-05     8.9287830E+01   
                   2.4175196E-02    -4.5432992E+01     1.4224735E-05    -8.4612289E+01     3.1262952E-02     1.7855709E+02     1.4729485E-05     9.2576721E+01   
                   6.7215297E-02    -4.0619402E-01     1.7213872E-05    -8.9467620E+01     2.9315887E-01     6.7596223E-02     2.5965646E-02    -4.9094797E+01   
                   1.4750166E-05     9.0892949E+01     1.8223329E-02    -1.7604239E+02     1.8280946E-05    -8.9993526E+01     1.6088058E-02     3.0314488E+00   
                   2.2098758E-05     8.9385791E+01     1.3025921E-02    -1.7722554E+02   
  5.5000000E+09     2.5408564E-02     1.6457500E+02     1.1615508E-05     7.6103784E+01     2.6768863E-02     1.1744418E+02     1.1962400E-05    -1.4504003E+02   
                   1.5958145E-02    -5.7500904E+01     9.1479482E-06     1.2104016E+01     1.1511594E-02     1.2503368E+02     9.9967674E-01    -7.5761787E+00   
                   1.0163425E-05    -1.3170326E+02     4.1753458E-02    -3.9245267E+01     6.6566700E-06     6.0165080E+01     2.8087642E-02     1.3569960E+02   
                   2.9219051E-06    -1.7772996E+02     2.0801751E-02    -4.6212548E+01   
                   1.2630994E-05     4.0145123E+01     4.1853078E-03     9.1958844E+00     4.4515088E-06    -1.0458440E+02     6.0228751E-03    -1.7672467E+02   
                   1.2739918E-06     1.0664658E+02     5.1937884E-03     2.4611392E+00     1.3354210E-06     8.4636033E+01     9.2579977E-06     5.6314763E+01   
                   7.2547026E-01     1.7992728E+02     1.1176539E-05    -9.3196908E+01     5.4693404E-02    -1.7939569E+02     1.3562256E-05     9.1520378E+01   
                   2.7909470E-02     8.7025205E-01     1.4215937E-05    -9.2090305E+01   
                   2.6771392E-02     1.1743408E+02     3.1132426E-06    -1.4276935E+02     1.3024352E-02    -3.2374804E+00     4.4629663E-06     9.1271239E+01   
                   9.4532016E-03     1.7734973E+02     5.4191541E-06    -7.0857878E+01     8.0398566E-03    -2.2298700E+00     2.7421995E-02     1.4450865E+02   
                   6.1301832E-07    -1.5417838E+02     6.0360306E-01     1.0016146E-01     8.5901219E-06    -1.6682783E+02     6.2844609E-02    -6.6666757E-01   
                   1.3126991E-05     9.8994327E+01     3.1628725E-02     1.7900783E+02   
                   9.8855157E-06    -1.4697358E+02     6.0228547E-03    -1.7670184E+02     3.6846016E-06     9.6057561E+01     6.3347010E-03     1.6042704E+00   
                   2.1785188E-06    -1.0972995E+02     5.5637651E-03    -1.7879402E+02     2.1407747E-06    -9.5259422E+01     1.0894701E-05    -1.4155374E+02   
                   4.0328782E-02    -6.7976749E-01     1.3612383E-05     9.6718498E+01     4.9802414E-01     1.7996560E+02     1.4925093E-05    -8.6780966E+01   
                   6.6343553E-02    -1.7981266E+02     1.8305534E-05     9.1075244E+01   
                   1.5963541E-02    -5.7503301E+01     3.4840422E-06     1.3464296E+01     9.4534256E-03     1.7734507E+02     3.6337892E-06     2.2290473E+01   
                   7.7580035E-03    -1.9249879E+00     3.1033396E-06     1.0273459E+02     7.5249632E-03     1.7856285E+02     1.6364086E-02    -4.0313302E+01   
                   7.9702254E-06    -1.4632118E+02     4.4192387E-02    -1.7915687E+02     3.0327697E-06     2.8600417E+01     4.1974327E-01     6.0999248E-02   
                   7.1191550E-06    -8.2377673E+01     6.7587152E-02    -2.8345625E-01   
                   1.1747740E-05     2.1646684E+01     5.1866833E-03     2.5355934E+00     4.8257219E-06    -8.2318297E+01     5.5681371E-03    -1.7881745E+02   
                   1.4002949E-06     1.0255912E+02     5.1301811E-03     8.4118533E-01     2.0202594E-06     1.0515493E+02     1.0793221E-05     4.0784775E+01   
                   1.9654716E-02     1.7911349E+02     1.4331824E-05    -8.0535139E+01     4.5435841E-02    -2.4629741E-01     1.7835539E-05     8.9527521E+01   
                   3.4935665E-01     1.7997651E+02     1.8725029E-05    -8.9492106E+01   
                   1.1518304E-02     1.2503652E+02     4.2768845E-06     1.4056384E+02     8.0403072E-03    -2.2385890E+00     4.0149285E-06    -3.0936949E+01   
                   7.5244182E-03     1.7856991E+02     3.0602187E-06     7.0978307E+01     9.3445067E-03    -8.3944837E-01     1.1813066E-02     1.3727915E+02   
                   5.5769199E-06    -9.8679528E+01     2.2437490E-02     1.2116117E+00     1.0028581E-05     9.8972469E+01     4.5066396E-02    -1.7958572E+02   
                   2.2390980E-06    -1.5224011E+02     2.9430353E-01     4.7394452E-02   
                   9.9967403E-01    -7.5760818E+00     8.6033284E-06     3.7832682E+01     2.7418174E-02     1.4450499E+02     1.0737470E-05    -1.3900458E+02   
                   1.6363403E-02    -4.0312738E+01     8.7601827E-06     4.5546464E+01     1.1806980E-02     1.3727511E+02     2.5407935E-02     2.6436763E-01   
                   8.7362292E-06    -1.4566646E+02     4.2718244E-02    -5.7685546E+01     8.5077920E-06     4.2998837E+01     2.8779734E-02     1.2713541E+02   
                   7.7988914E-06    -1.1927746E+02     2.1323151E-02    -5.1043944E+01   
                   9.0664622E-06    -1.5588217E+02     7.2546820E-01     1.7992735E+02     5.1577492E-06     8.2557815E+01     4.0324764E-02    -6.7201508E-01   
                   3.2269076E-06    -9.5829887E+01     1.9659641E-02     1.7910060E+02     8.1169992E-07    -6.6019550E+01     6.7550512E-06    -1.2344962E+02   
                   1.4594286E-02     1.7505625E+02     1.3658186E-05     8.8116108E+01     1.7871731E-02    -2.5404676E+00     1.7308715E-05    -9.0992680E+01   
                   1.5964808E-02     1.7790172E+02     1.8459851E-05     9.1838449E+01   
                   4.1756326E-02    -3.9245560E+01     1.1226798E-05    -7.9672081E+01     6.0360601E-01     1.0017131E-01     1.4156921E-05     9.3624226E+01   
                   4.4190141E-02    -1.7915755E+02     1.4511363E-05    -8.9656215E+01     2.2433408E-02     1.2125173E+00     4.2718283E-02    -5.7684340E+01   