! S-parameter export from POSTFEKO
! Filename: circular_2wg_5modes
! Creation date: 2019-12-28 12:44:53
! 
# GHz S MA R    5.0000000E+01 
  4.0000000E+00     1.2808859E-01     5.6284693E-04     9.6932538E-06     9.3626301E+01     3.1856935E-02    -1.7999787E+02     6.7323899E-06    -1.2408573E+02   
                   2.1226934E-02     1.6939794E-04     9.0356767E-01    -1.7064740E-04     9.8351052E-06    -7.9814179E+01     5.9209141E-02     2.2010720E-03   
                   1.0712328E-05     7.9246001E+01     3.7993600E-02     1.7999785E+02   
                   7.9084411E-06     8.4742266E+01     8.5227957E-03     8.9189192E-03     2.1810623E-06    -1.0485376E+02     7.8295119E-03     1.7999498E+02   
                   4.0207063E-07    -1.5256473E+02     7.7432690E-06     8.5146336E+01     6.9877351E-01     1.7999988E+02     7.3771818E-06    -9.5817700E+01   
                   5.3466007E-02    -1.7999900E+02     1.0052655E-05     8.4027998E+01   
                   3.1863096E-02     1.7999980E+02     1.5673705E-06    -1.5594960E+02     1.3590304E-02    -1.2064354E-03     4.1645183E-06     9.5183596E+01   
                   1.1458016E-02    -1.7999853E+02     3.6101693E-02    -1.7999971E+02     2.9411178E-06     5.8771169E+01     5.8756698E-01    -5.0188955E-05   
                   4.3764469E-06    -7.6350356E+01     6.2017540E-02    -6.6324894E-04   
                   8.5230879E-06    -9.4953040E+01     7.8266531E-03    -1.7999699E+02     2.3200816E-06     8.6520668E+01     7.6094799E-03     9.2215342E-03   
                   7.4245242E-07    -1.0606429E+02     7.8572173E-06    -8.6460187E+01     4.0064342E-02     1.2675984E-03     8.8513333E-06     8.8217367E+01   
                   4.8937500E-01    -1.7999996E+02     1.0465899E-05    -8.9323017E+01   
                   2.1229118E-02    -1.6036676E-05     4.4336390E-06    -8.1884028E+01     1.1458190E-02     1.7999882E+02     1.4961544E-06     7.6704990E+01   
                   1.2378118E-02     2.0046908E-03     2.1641494E-02    -3.4981519E-03     3.5436957E-06    -1.3089496E+02     4.3012944E-02     1.7999938E+02   
                   1.3613781E-06    -2.3540871E+01     4.1335755E-01    -1.3074124E-04   
                   9.0356483E-01     3.8330966E-05     6.3907870E-06     8.2761462E+01     3.6099794E-02    -1.7999811E+02     6.5620926E-06    -9.8073067E+01   
                   2.1640140E-02     7.0420831E-04     1.4797036E-01    -1.7999963E+02     9.2862938E-06    -9.8331531E+01     4.2568710E-02     2.6383116E-03   
                   1.0141555E-05     8.3047118E+01     3.0131221E-02     1.7999754E+02   
                   8.2686232E-06    -9.4249074E+01     6.9877199E-01    -1.7999998E+02     2.9897853E-06     7.7758133E+01     4.0062514E-02    -5.5334645E-04   
                   1.7630267E-06    -7.7681072E+01     8.8561898E-06    -9.8271978E+01     2.0822729E-02    -1.7999837E+02     9.4248231E-06     8.4926308E+01   
                   1.9884968E-02    -2.8282112E-03     1.1855451E-05    -9.6116810E+01   
                   5.9205598E-02     2.9556143E-04     6.5963325E-06    -8.4801537E+01     5.8756704E-01    -4.8040285E-05     7.8873794E-06     8.9148579E+01   
                   4.3009915E-02     1.7999970E+02     4.2566864E-02     1.6263990E-03     9.5851075E-06     9.2716949E+01     2.2820729E-02    -1.7999788E+02   
                   1.0193772E-05    -9.1945647E+01     1.8726640E-02     2.5846710E-03   
                   7.8259740E-06     1.0552651E+02     5.3466191E-02    -1.7999987E+02     3.7640128E-06    -8.6474340E+01     4.8937172E-01    -1.7999986E+02   
                   9.3184263E-07     9.7989415E+01     7.6150564E-06     1.0014539E+02     1.9881630E-02    -3.3052460E-03     1.0864186E-05    -9.2776772E+01   
                   1.9884882E-02    -1.7999882E+02     1.3898189E-05     9.2767026E+01   
                   3.7991094E-02    -1.7999671E+02     1.0525295E-05     8.6539549E+01     6.2015997E-02     7.4830112E-04     1.0953492E-05    -9.1550848E+01   
                   4.1335657E-01    -9.0246781E-05     3.0130727E-02    -1.7999857E+02     1.0846113E-05    -9.0987850E+01     1.8727262E-02     5.1009233E-04   
                   1.4225357E-05     9.0426202E+01     1.5590824E-02    -1.7999690E+02   
  4.5000000E+00     9.4924868E-01    -1.1898159E+02     8.6098642E-06     3.2583868E+01     5.8183274E-02     1.1686812E+02     1.6405554E-05    -1.5024845E+02   
                   3.6924370E-02    -6.1202917E+01     1.2886995E+00    -1.4805887E+01     1.3104911E-05    -1.4115843E+02     8.8810124E-02    -5.5086806E+01   
                   1.5476918E-05     2.5942377E+01     5.9293965E-02     1.2321216E+02   
                   1.2968538E-05     3.5845373E+01     7.1369270E-03     1.2683111E+01     3.5553155E-06    -7.0524389E+01     7.2354929E-03    -1.7316171E+02   
                   7.1481197E-07    -4.5854520E+01     5.5994153E-06    -8.5674916E+00     7.0722882E-01     1.7982391E+02     7.9727139E-06    -8.5406421E+01   
                   5.3220794E-02    -1.7848664E+02     1.0148414E-05     9.4111728E+01   
                   5.8181141E-02     1.1686650E+02     4.2451162E-06    -7.6370445E+01     1.4784205E-02    -1.2675470E+01     3.8607494E-06     7.2215562E+01   
                   1.2149638E-02     1.7041852E+02     8.0561302E-02     1.6519344E+02     2.4220602E-06    -6.2678759E+00     5.9104064E-01     4.4132098E-01   
                   4.0618821E-06    -1.5923600E+02     6.3081839E-02    -2.8178694E+00   
                   2.0555734E-05    -1.4764340E+02     7.2336712E-03    -1.7318476E+02     1.8094491E-06     6.3641090E+01     7.3627022E-03     3.6903901E+00   
                   1.6411320E-06    -1.3789298E+02     2.9933931E-05    -1.0577453E+02     4.0729411E-02    -1.6806462E+00     8.6924691E-06     1.0058567E+02   
                   4.9233506E-01     1.7991010E+02     1.2753980E-05    -8.2766094E+01   
                   3.6920148E-02    -6.1208006E+01     3.6741762E-06     1.7453718E+02     1.2150649E-02     1.7041898E+02     8.1905974E-07     1.3299728E+00   
                   1.2785381E-02    -5.6601448E+00     5.0225492E-02    -1.4805070E+01     5.2390659E-06     1.1178651E+02     4.2829770E-02    -1.7619945E+02   
                   6.6521083E-06    -5.6846533E+01     4.1481262E-01     2.6711069E-01   
                   1.2887029E+00    -1.4805662E+01     1.5295452E-05     6.6690799E+01     8.0550821E-02     1.6519423E+02     2.2421182E-05    -1.0346283E+02   
                   5.0217627E-02    -1.4806233E+01     9.9999610E-01     6.0388534E+01     1.7045721E-05    -1.0374932E+02     1.1302342E-01    -1.4805016E+01   
                   2.0970610E-05     7.6338574E+01     7.6989940E-02     1.6519432E+02   
                   1.1422480E-05    -1.4566240E+02     7.0723280E-01     1.7982346E+02     3.7978256E-06     7.9884897E+01     4.0726875E-02    -1.6800971E+00   
                   1.8301121E-06    -1.5072449E+02     1.2060668E-05    -9.6474398E+01     2.0580679E-02     1.7154113E+02     1.0793781E-05     8.9971549E+01   
                   2.0081642E-02    -5.5845322E+00     1.3048591E-05    -8.9635661E+01   
                   8.8806538E-02    -5.5086925E+01     8.7863736E-06    -8.5638222E+01     5.9103880E-01     4.4123416E-01     8.4107974E-06     9.7762344E+01   
                   4.2826919E-02    -1.7620108E+02     1.1301872E-01    -1.4805524E+01     1.0650053E-05     9.6256842E+01     2.2832821E-02    -1.6375447E+02   
                   1.3261962E-05    -8.6802662E+01     1.8589706E-02     1.3537720E+01   
                   2.2916413E-05     3.2530760E+01     5.3218363E-02    -1.7848196E+02     5.0553957E-06    -1.0884249E+02     4.9233569E-01     1.7991023E+02   
                   2.5710572E-06     4.4000952E+01     3.1568863E-05     7.4496619E+01     2.0074224E-02    -5.5882283E+00     1.1354395E-05    -8.5030895E+01   
                   2.0179670E-02     1.7641329E+02     1.6427946E-05     9.2988731E+01   
                   5.9292414E-02     1.2321351E+02     1.1343180E-05     8.3792186E+01     6.3081076E-02    -2.8176227E+00     1.2455689E-05    -8.8592838E+01   
                   4.1481204E-01     2.6697333E-01     7.6986180E-02     1.6519519E+02     1.5204938E-05    -9.4538106E+01     1.8589508E-02     1.3537554E+01   
                   1.6886974E-05     9.2090872E+01     1.5399288E-02    -1.6890062E+02   
  5.0000000E+00     7.2087707E-02     1.7065640E+02     3.3391456E-06     8.3454162E+00     3.1569648E-02     1.2289059E+02     8.2885965E-06    -1.4700681E+02   
                   1.9967899E-02    -5.3054827E+01     9.9740046E-01    -5.1464324E+00     9.0650665E-06    -1.5243352E+02     4.7937642E-02    -4.0334069E+01   
                   9.3532816E-06     2.4615855E+01     3.1981480E-02     1.3608800E+02   
                   6.5269955E-06     1.2781480E+01     6.5071923E-03     6.5521899E+00     7.3610016E-07    -1.2226048E+02     7.2273065E-03    -1.7684478E+02   
                   2.1246717E-07    -6.4993219E+01     8.7908946E-06     4.7709507E+01     7.1503761E-01     1.7991861E+02     9.5507533E-06    -9.6568490E+01   
                   5.4237152E-02    -1.7931693E+02     1.2784332E-05     9.3925871E+01   
                   3.1574617E-02     1.2289552E+02     2.6637683E-07    -9.9619096E+01     1.3357125E-02    -4.6087075E+00     2.5773925E-06     1.1477722E+02   
                   1.1227663E-02     1.7654823E+02     3.3872131E-02     1.4096269E+02     4.9341830E-06     1.1541419E+02     5.9863791E-01     1.4987723E-01   
                   5.3274225E-06    -5.1940006E+01     6.1762175E-02    -9.8498086E-01   
                   1.0369799E-05    -1.2382156E+02     7.2224228E-03    -1.7685131E+02     3.3517129E-06     1.1317307E+02     7.4895113E-03     1.6368875E+00   
                   9.2889704E-07     1.6004704E+01     1.1149504E-05    -1.3081060E+02     4.0323529E-02    -7.7992192E-01     1.1964020E-05     9.3221597E+01   
                   4.9497018E-01     1.7995953E+02     1.4499186E-05    -8.4585895E+01   
                   1.9974171E-02    -5.3060805E+01     8.2674925E-07     3.2415924E+01     1.1227243E-02     1.7654788E+02     5.1384567E-07    -1.4132878E+02   
                   1.2217676E-02    -2.0134347E+00     2.1451923E-02    -4.2544131E+01     3.4615309E-06     1.1631011E+02     4.4835618E-02    -1.7871189E+02   
                   2.0010810E-06     5.3836169E+00     4.1800782E-01     9.3374686E-02   
                   9.9739575E-01    -5.1466511E+00     4.8961361E-06     4.7434617E+01     3.3862036E-02     1.4096919E+02     9.6659565E-06    -1.3580803E+02   
                   2.1453483E-02    -4.2546711E+01     7.2084366E-02    -9.4977994E-01     7.4944059E-06    -1.3164908E+02     5.1356737E-02    -5.3572611E+01   
                   1.2501488E-05     3.8988677E+01     3.4331983E-02     1.2953861E+02   
                   9.1568846E-06    -1.4444178E+02     7.1503932E-01     1.7991860E+02     3.3055927E-06     8.5728030E+01     4.0325369E-02    -7.7552529E-01   
                   1.0878635E-06    -1.2664582E+02     8.9671005E-06    -1.2897431E+02     1.6757133E-02     1.7522982E+02     1.3339013E-05     9.0096915E+01   
                   1.8223610E-02    -2.7929793E+00     1.5044598E-05    -9.2002679E+01   
                   4.7935412E-02    -4.0333820E+01     9.4390679E-06    -9.9574985E+01     5.9863467E-01     1.4988343E-01     1.2605935E-05     9.3270266E+01   
                   4.4833184E-02    -1.7871218E+02     5.1355077E-02    -5.3574545E+01     1.0964523E-05     9.1118013E+01     2.7350614E-02    -1.7482277E+02   
                   1.3766118E-05    -9.1408538E+01     2.1525676E-02     4.3859631E+00   
                   1.0246784E-05     5.3878002E+01     5.4236298E-02    -1.7931561E+02     5.1878935E-06    -8.3673930E+01     4.9496721E-01     1.7995988E+02   
                   1.2255083E-06     6.2763843E+01     1.0198027E-05     5.3481915E+01     1.8223661E-02    -2.7871860E+00     1.4349301E-05    -8.7619740E+01   
                   1.9245541E-02     1.7831895E+02     1.9140440E-05     9.1775762E+01   
                   3.1978492E-02     1.3608533E+02     1.0091782E-05     9.0300393E+01     6.1762277E-02    -9.8407995E-01     1.3224315E-05    -8.7678313E+01   
                   4.1800776E-01     9.3154587E-02     3.4331849E-02     1.2953642E+02     1.5504358E-05    -8.9896078E+01     2.1525054E-02     4.3852318E+00   
                   1.9710504E-05     9.1064654E+01     1.7292348E-02    -1.7634669E+02   
  5.5000000E+00     2.5353203E-02     1.6522844E+02     5.3781524E-06     3.9563877E+01     2.7367598E-02     1.1779680E+02     9.5613686E-06    -1.5836071E+02   
                   1.7240458E-02    -5.6586424E+01     9.9967992E-01    -7.5937272E+00     6.6191063E-06    -1.4545444E+02     4.1303059E-02    -3.9138432E+01   
                   1.1579996E-05     5.7711713E+01     2.7527050E-02     1.3588644E+02   
                   4.6124429E-06     3.7666500E+01     4.5107813E-03     8.7288359E+00     2.5331467E-06    -9.4748686E+01     6.5881426E-03    -1.7687313E+02   
                   1.8631091E-06    -9.8490716E+01     4.4572751E-06     3.8021139E+01     7.2571662E-01     1.7992714E+02     1.0593941E-05    -9.1602570E+01   
                   5.4421928E-02    -1.7939217E+02     1.2853716E-05     9.3066390E+01   
                   2.7371561E-02     1.1779743E+02     2.1509682E-06    -6.7285171E+01     1.4013182E-02    -3.1343244E+00     5.4805022E-06     1.0050286E+02   
                   1.1577423E-02     1.7761764E+02     2.8027353E-02     1.4412645E+02     6.5040416E-06     5.7208247E+01     6.0416417E-01     1.0142438E-01   
                   8.6030658E-06     3.3025393E+01     6.2389313E-02    -6.7580679E-01   
                   1.0481910E-05    -1.5112278E+02     6.5863753E-03    -1.7690017E+02     3.2044040E-06     7.4889599E+01     7.3086057E-03     1.4749019E+00   
                   2.4526519E-06    -9.5847260E+01     9.9436322E-06    -1.3673906E+02     4.0718379E-02    -6.7995673E-01     1.4983345E-05     9.4299229E+01   
                   4.9845681E-01     1.7996549E+02     1.3744498E-05    -8.8299663E+01   
                   1.7242637E-02    -5.6584564E+01     2.3260827E-06    -1.7725785E+02     1.1576916E-02     1.7761062E+02     1.1517159E-06     1.1501307E+02   
                   1.2426597E-02    -1.4048377E+00     1.7681317E-02    -4.1212531E+01     2.1306998E-06     1.4018497E+02     4.5204832E-02    -1.7911598E+02   
                   6.8332271E-06    -6.3600857E+01     4.2028604E-01     6.4819657E-02   
                   9.9967755E-01    -7.5935562E+00     6.1010494E-06     6.0384186E+01     2.8031602E-02     1.4413137E+02     9.0857460E-06    -1.3053789E+02   
                   1.7678279E-02    -4.1213487E+01     2.5351682E-02    -4.1482481E-01     5.2044766E-06    -1.1984437E+02     4.2254834E-02    -5.7819121E+01   
                   1.1376706E-05     4.9976938E+01     2.8204199E-02     1.2692741E+02   
                   6.3240897E-06    -1.6235789E+02     7.2571509E-01     1.7992738E+02     4.3398797E-06     9.5520343E+01     4.0717050E-02    -6.7954701E-01   
                   1.1555256E-06    -1.0608918E+02     8.2026507E-06    -1.3032580E+02     1.4323712E-02     1.7500610E+02     1.4001737E-05     8.8387903E+01   
                   1.7484738E-02    -2.5553359E+00     1.6502277E-05    -9.2473869E+01   
                   4.1298828E-02    -3.9139109E+01     8.6070892E-06    -8.2697790E+01     6.0416255E-01     1.0142678E-01     1.2474104E-05     9.0264573E+01   
                   4.5200609E-02    -1.7911594E+02     4.2252421E-02    -5.7817165E+01     1.3879146E-05     8.5123380E+01     2.8412030E-02    -1.7647790E+02   
                   1.5221007E-05    -8.6309132E+01     2.2063720E-02     3.0158234E+00   
                   1.1930360E-05     4.0939315E+01     5.4416367E-02    -1.7938972E+02     4.8306378E-06    -9.4392311E+01     4.9845465E-01     1.7996517E+02   
                   1.8375370E-06     6.4418053E+01     1.2446476E-05     4.3709749E+01     1.7483559E-02    -2.5483818E+00     1.7853837E-05    -9.0093113E+01   
                   1.9093280E-02     1.7853691E+02     2.0404431E-05     9.0575087E+01   
                   2.7525411E-02     1.3588318E+02     1.2122997E-05     8.7175410E+01     6.2389869E-02    -6.7559228E-01     1.5647082E-05    -8.9065127E+01   
                   4.2028512E-01     6.4811213E-02     2.8204189E-02     1.2692757E+02     1.4308998E-05    -8.6609824E+01     2.2063770E-02     3.0168092E+00   
                   2.3007080E-05     9.3769657E+01     1.7531831E-02    -1.7745830E+02   
  6.0000000E+00     9.0096775E-03     1.5851968E+02     9.8794842E-06     3.0020440E+01     2.4962225E-02     1.1342958E+02     1.3452461E-05    -1.4670642E+02   
                   1.5646887E-02    -5.9543251E+01     9.9996511E-01    -9.5818658E+00     9.3867180E-06     1.7572876E+02     3.7398178E-02    -3.7928600E+01   
                   1.8519597E-05     7.4475577E+01     2.4891173E-02     1.3582654E+02   
                   9.9360270E-06    -2.7907612E+01     1.7804320E-03     2.3422132E+01     2.7363965E-06    -6.5443944E+01     5.7587841E-03    -1.7635599E+02   
                   1.8918280E-06     1.1855363E+02     1.0701227E-05     3.4348421E+01     7.3822053E-01     1.7992603E+02     1.8554832E-05    -8.6200391E+01   
                   5.4614680E-02    -1.7939801E+02     1.5788879E-05     9.4896416E+01   
                   2.4970106E-02     1.1342705E+02     5.8301282E-06    -1.0281448E+02     1.4802562E-02    -2.4310173E+00     4.8742652E-06    -1.7352974E+02   
                   1.1992159E-02     1.7813138E+02     2.5173575E-02     1.4680528E+02     1.0400391E-05     9.8491892E+01     6.1038848E-01     7.6942362E-02   
                   9.1960115E-06     8.4779484E+01     6.3107331E-02    -5.2982597E-01   
                   1.1606226E-05    -1.2024127E+02     5.7607113E-03    -1.7631045E+02     1.1317232E-06    -1.4557733E+02     7.0847145E-03     1.4681967E+00   
                   7.7323738E-07     1.7551580E+02     1.0975786E-05    -8.0286563E+01     4.1165590E-02    -6.6653361E-01     1.3204879E-05     1.2120924E+02   
                   5.0234132E-01     1.7996486E+02     1.4276950E-05    -9.3008038E+01   
                   1.5646516E-02    -5.9517686E+01     4.6753546E-06    -4.9063453E+01     1.1991167E-02     1.7811259E+02     4.5555134E-06    -1.5459040E+02   
                   1.2663740E-02    -1.1246276E+00     1.5787871E-02    -4.0090094E+01     2.6825277E-06    -2.2855092E+01     4.5623387E-02    -1.7931244E+02   
                   1.1329937E-05     5.4235060E+00     4.2280716E-01     5.1695962E-02   
                   9.9996069E-01    -9.5814806E+00     8.8602286E-06     3.9132381E+01     2.5172557E-02     1.4679916E+02     9.2819276E-06    -1.4277158E+02   
                   1.5789473E-02    -4.0116520E+01     9.0092261E-03     2.3120505E+00     9.9567153E-06    -1.3772710E+02     3.7673085E-02    -6.1363579E+01   
                   1.0617827E-05     4.5224638E+01     2.5101469E-02     1.2479921E+02   
                   7.6698920E-06    -1.6017778E+02     7.3820860E-01     1.7992622E+02     4.8802951E-06     8.7504671E+01     4.1175003E-02    -6.7170815E-01   
                   1.6991182E-06    -9.6509232E+01     7.8666515E-06    -1.3253362E+02     1.0976592E-02     1.7340875E+02     1.5284986E-05     9.1906669E+01   
                   1.6555569E-02    -2.6718001E+00     1.7283125E-05    -8.9489473E+01   
                   3.7397355E-02    -3.7918417E+01     1.0099124E-05    -8.6127936E+01     6.1039113E-01     7.7707941E-02     1.2981500E-05     8.9208125E+01   
                   4.5618379E-02    -1.7931019E+02     3.7673944E-02    -6.1362823E+01     1.3365263E-05     8.5604129E+01     2.9695005E-02    -1.7727933E+02   
                   1.7240541E-05    -9.3055163E+01     2.2697020E-02     2.3577171E+00   
                   9.3583588E-06     3.6565333E+01     5.4611526E-02    -1.7939105E+02     6.6322206E-06    -8.8614183E+01     5.0234568E-01     1.7996631E+02   
                   1.8655090E-06     6.7309841E+01     1.0141067E-05     6.1001088E+01     1.6556608E-02    -2.6700448E+00     1.8444867E-05    -8.8411463E+01   
                   1.8924324E-02     1.7857657E+02     2.1434002E-05     8.7587722E+01   
                   2.4893532E-02     1.3582498E+02     1.4495164E-05     9.4303729E+01     6.3107199E-02    -5.2583676E-01     1.7928321E-05    -8.2980345E+01   
                   4.2280860E-01     5.1422028E-02     2.5099923E-02     1.2480099E+02     1.8910122E-05    -7.7539269E+01     2.2695813E-02     2.3560929E+00   
                   2.2398889E-05     9.7878396E+01     1.7807722E-02    -1.7798315E+02   
  6.5000000E+00     1.0325123E-03     1.1164727E+02     1.3693424E-05     3.3774789E+01     2.3356013E-02     1.0937291E+02     8.2499329E-06    -1.3539684E+02   
                   1.4559937E-02    -6.2210537E+01     9.9998828E-01    -1.1356208E+01     1.0021143E-05    -1.6782253E+02     3.4696210E-02    -3.6676593E+01   
                   1.0975157E-05     7.0632900E+01     2.3059612E-02     1.3580884E+02   
                   6.0146787E-06     6.5808111E+01     2.6243600E-03     1.6240352E+02     4.4041283E-06    -1.0226573E+02     4.6612177E-03    -1.7518544E+02   
                   1.8312769E-06    -3.2681310E+01     1.0697194E-05    -2.7648529E+00     7.5290287E-01     1.7992101E+02     1.2255544E-05    -9.1129199E+01   
                   5.4817851E-02    -1.7935923E+02     1.1174878E-05     1.0052917E+02   
                   2.3363140E-02     1.0939323E+02     7.1106399E-06    -3.6300551E+01     1.5757793E-02    -1.9886721E+00     6.2912928E-06     1.0281318E+02   
                   1.2472606E-02     1.7845372E+02     2.3387273E-02     1.4928537E+02     1.1390551E-05     7.3581532E+01     6.1739087E-01     6.2368731E-02   
                   7.8610094E-06    -1.2665514E+02     6.3929182E-02    -4.3424686E-01   
                   1.4580541E-05     1.7006188E+02     4.6601664E-03    -1.7511449E+02     4.6426792E-06     8.8090047E+01     6.8225473E-03     1.6086754E+00   
                   1.9704105E-06    -8.2857152E+01     2.0539351E-05    -9.0542247E+01     4.1712065E-02    -6.9168085E-01     1.1247453E-05     7.9323869E+01   
                   5.0665852E-01     1.7996540E+02     2.0012963E-05    -9.7473443E+01   
                   1.4555277E-02    -6.2208424E+01     9.6921933E-06    -1.3013786E+02     1.2476212E-02     1.7844461E+02     6.2765694E-06     1.4187776E+02   
                   1.2930856E-02    -9.4994842E-01     1.4565572E-02    -3.9077658E+01     1.0478067E-05     6.3478300E+01     4.6093123E-02    -1.7944145E+02   
                   5.7110074E-06     6.0344276E+01     4.2558950E-01     4.2510487E-02   
                   9.9999703E-01    -1.1356176E+01     7.4395952E-06     5.7876136E+01     2.3380103E-02     1.4929168E+02     8.4334012E-06    -1.1384457E+02   
                   1.4570933E-02    -3.9112767E+01     1.0244131E-03     4.6168842E+01     7.0826720E-06    -1.4091738E+02     3.4700844E-02    -6.4631490E+01   
                   1.0644274E-05     6.2786100E+01     2.3068021E-02     1.2289726E+02   
                   9.6652159E-06    -1.6078675E+02     7.5290254E-01     1.7992086E+02     5.7444944E-06     8.0002517E+01     4.1709059E-02    -6.9625009E-01   
                   1.7996434E-06    -1.0432800E+02     9.3940698E-06    -1.3638485E+02     6.2091424E-03     1.6747311E+02     1.6285248E-05     8.7707880E+01   
                   1.5365275E-02    -2.9859870E+00     1.9899783E-05    -9.0925452E+01   
                   3.4697784E-02    -3.6664324E+01     9.8286297E-06    -8.4145318E+01     6.1738939E-01     6.2438305E-02     1.5239626E-05     9.1285645E+01   
                   4.6090671E-02    -1.7943327E+02     3.4700772E-02    -6.4629470E+01     1.6663826E-05     8.8729995E+01     3.1227955E-02    -1.7778944E+02   
                   1.9978394E-05    -9.0727903E+01     2.3430585E-02     1.9445495E+00   
                   9.6024772E-06     3.4670609E+01     5.4816009E-02    -1.7935554E+02     7.3851141E-06    -9.1147021E+01     5.0666442E-01     1.7996603E+02   
                   2.3797867E-06     8.9886754E+01     1.1207693E-05     5.9515549E+01     1.5365794E-02    -2.9993521E+00     1.9878500E-05    -8.6880267E+01   
                   1.8727483E-02     1.7854100E+02     2.4994956E-05     8.8792750E+01   
                   2.3058822E-02     1.3580471E+02     1.5996303E-05     8.9094396E+01     6.3926396E-02    -4.3306186E-01     1.8953280E-05    -8.8799493E+01   
                   4.2558821E-01     4.3003893E-02     2.3068492E-02     1.2289754E+02     1.6736519E-05    -9.0416706E+01     2.3431791E-02     1.9445687E+00   
                   2.2670046E-05     9.0636805E+01     1.8116015E-02    -1.7831464E+02   
  7.0000000E+00     4.4037498E-03    -1.2901326E+01     7.5010093E-06     1.5984295E+01     2.2211372E-02     1.0544219E+02     5.4639082E-06    -1.3482988E+02   
                   1.3747569E-02    -6.4746831E+01     9.9999319E-01    -1.3006966E+01     1.0877942E-05     1.6427520E+02     3.2659212E-02    -3.5352087E+01   
                   8.2894426E-06     4.4937952E+01     2.1664895E-02     1.3581241E+02   
                   5.5000394E-06     3.6773904E+01     8.9729188E-03     1.7402441E+02     3.3642246E-06    -8.7680085E+01     3.1594385E-03    -1.7210530E+02   
                   1.1058684E-06     1.1058262E+02     6.5001053E-06     1.6995873E+01     7.7036186E-01     1.7991239E+02     1.2206346E-05    -8.1294649E+01   
                   5.5043904E-02    -1.7929433E+02     1.4850790E-05     9.1016056E+01   
                   2.2214754E-02     1.0544066E+02     3.1366849E-06    -9.9288792E+01     1.6921236E-02    -1.6692741E+00     5.5524445E-06     9.4043682E+01   
                   1.3040252E-02     1.7868132E+02     2.2145609E-02     1.5173758E+02     7.7678001E-06     9.5736924E+01     6.2522804E-01     5.1179005E-02   
                   8.9985743E-06    -9.6859441E+01     6.4860103E-02    -3.6470225E-01   
                   9.9672177E-06    -1.5997153E+02     3.1652721E-03    -1.7219947E+02     4.5618562E-06     1.0423238E+02     6.4972897E-03     1.7901177E+00   
                   1.0872977E-06     1.4728406E+02     8.4746062E-06    -1.2687324E+02     4.2343181E-02    -7.4760494E-01     1.5380771E-05     8.6231238E+01   
                   5.1143548E-01     1.7996471E+02     1.8639380E-05    -9.0118390E+01   
                   1.3750675E-02    -6.4751908E+01     3.5295328E-06     4.6596873E+01     1.3039331E-02     1.7868344E+02     2.0556330E-06     1.6674250E+02   
                   1.3235248E-02    -8.1539554E-01     1.3695621E-02    -3.8140734E+01     3.2329903E-06    -6.2324499E+01     4.6624090E-02    -1.7952306E+02   
                   1.0056126E-06     8.0342748E+01     4.2863352E-01     3.7011613E-02   
                   9.9998859E-01    -1.3007023E+01     5.3051283E-06     4.1704450E+01     2.2143924E-02     1.5173355E+02     8.7872981E-06    -1.2797624E+02   
                   1.3693612E-02    -3.8151211E+01     4.4034467E-03     1.6691082E+02     1.0842290E-05    -1.3490010E+02     3.2537861E-02    -6.7786912E+01   
                   8.6466749E-06     6.6806020E+01     2.1573039E-02     1.2112022E+02   
                   6.8084319E-06    -1.4839063E+02     7.7036618E-01     1.7991219E+02     7.2256312E-06     8.5713866E+01     4.2342537E-02    -7.4508156E-01   
                   2.0428350E-06    -1.0206432E+02     7.4361711E-06    -1.3476796E+02     1.9845060E-03     4.8668591E+01     1.7126366E-05     9.1515208E+01   
                   1.3800654E-02    -3.5508564E+00     2.0871470E-05    -8.9800577E+01   
                   3.2659928E-02    -3.5353032E+01     1.2463886E-05    -8.3898339E+01     6.2522780E-01     5.1196119E-02     1.6560287E-05     8.8901270E+01   
                   4.6622631E-02    -1.7952138E+02     3.2538409E-02    -6.7787290E+01     1.6339161E-05     8.9713076E+01     3.3073099E-02    -1.7815710E+02   
                   2.1846404E-05    -9.2218727E+01     2.4281428E-02     1.6447600E+00   
                   9.8628372E-06     2.1544220E+01     5.5041110E-02    -1.7929457E+02     6.5947249E-06    -9.1982431E+01     5.1143660E-01     1.7996460E+02   
                   1.5612257E-06     5.8432687E+01     9.7374786E-06     5.4959595E+01     1.3797248E-02    -3.5609832E+00     2.1751721E-05    -8.9254570E+01   
                   1.8499536E-02     1.7847140E+02     2.5457254E-05     8.8766993E+01   
                   2.1663565E-02     1.3581120E+02     1.5752225E-05     9.0739123E+01     6.4859003E-02    -3.6412032E-01     2.0261195E-05    -8.6494929E+01   
                   4.2863321E-01     3.7086478E-02     2.1571201E-02     1.2111718E+02     1.9494333E-05    -8.7596745E+01     2.4282878E-02     1.6443466E+00   
                   2.4794905E-05     8.7674565E+01     1.8458120E-02    -1.7854434E+02   
  7.5000000E+00     7.7159618E-03    -2.0629388E+01     1.2836045E-05     6.8562110E+01     2.1373790E-02     1.0155399E+02     1.3342146E-05    -1.2426808E+02   
                   1.3118446E-02    -6.7190952E+01     9.9997440E-01    -1.4578535E+01     1.0059589E-05     3.8462646E+01     3.1040568E-02    -3.3950940E+01   
                   9.0392153E-06     1.3193670E+01     2.0543263E-02     1.3583865E+02   
                   5.0960909E-06     3.8481379E+01     1.9775136E-02     1.7666765E+02     3.5051278E-06    -6.8283194E+01     1.0632185E-03    -1.5163895E+02   
                   1.1309668E-06    -1.2271914E+02     7.9796792E-06     9.9736122E+01     7.9145232E-01     1.7989964E+02     1.3767222E-05    -9.1386899E+01   
                   5.5294753E-02    -1.7920018E+02     1.4102165E-05     1.0305209E+02   