! S-parameter export from POSTFEKO
! Filename: circular_2wg_6_24_modes_ratio_2
<<<<<<< HEAD
! Creation date: 2020-01-21 08:41:36
! 
# Hz S MA R    5.0000000E+01 
  2.0000000E+09     1.6390904E-02     9.9429478E-04     1.2349986E-06    -1.4714987E+02     1.0783177E-06     8.4060822E+01     2.7231606E-06     5.2808843E+00   
                   3.0083186E-06     1.0156549E+02     2.3334996E-06     2.0315608E+00     5.6218047E-02    -1.5051390E-05     3.2174369E-07     1.0175414E+02   
                   2.2120412E-07     1.1941995E+02     1.3444057E-07    -7.6751454E+01     4.5401489E-07    -8.4761749E+01     1.1994161E-07     1.9799710E+01   
                   1.7579509E-02     2.6366081E-04     2.7280031E-07     2.3480375E+01     5.1100931E-08    -9.8618234E+01     2.0042702E-07     1.3024979E+02   
                   6.5207781E-07    -1.5439311E+02     4.2322354E-08    -6.2295235E+01     3.2834765E-07    -1.7532690E+02     1.2899383E-07     9.9204898E-01   
                   6.9052207E-07     1.0632471E+02     1.3296711E-03     2.7646165E-03     7.1999213E-08     3.6358603E+01     4.5518832E-07     1.7464415E+02   
                   8.3611011E-08    -1.4118926E+02     5.4162246E-08     9.4108365E+01     2.4794645E-07    -6.0973286E+01     1.9580241E-07     1.3579497E+01   
                   2.1947372E-07    -1.0228560E+02     5.6546050E-07     2.9217607E+01   
                   2.1384213E-06    -1.6486563E+02     2.8519064E-04     1.5217434E-02     3.5398986E-06    -9.1418470E+01     3.8617993E-06    -1.7793158E+02   
                   1.2250808E-06     2.1963209E+00     1.5981371E-06    -8.0156347E+00     2.3653953E-07     7.8355880E+00     6.3389929E-03     1.7999998E+02   
                   7.4617357E-08    -1.0053173E+02     2.6646801E-08     1.4111190E+02     1.2603225E-07     9.2838476E+01     3.5777526E-08     9.1821920E+01   
                   4.8116086E-08    -1.0770610E+01     5.2785333E-08    -1.0240565E+02     1.0669686E-08     1.0772016E+02     2.3128124E-03    -1.7999931E+02   
                   4.3822262E-08     8.5952649E+01     2.2889611E-08    -4.3157701E+01     5.0112447E-08    -1.2832649E+02     2.5319166E-08     1.4961405E+02   
                   3.6365288E-08    -1.3702585E+02     2.4425792E-09    -1.4040245E+02     2.0414924E-08    -1.5351422E+02     4.0623795E-08    -8.2625972E+01   
                   9.4834295E-09     1.7593861E+02     1.7281993E-08    -1.6384311E+02     4.6648938E-08     1.5924233E+02     6.4436054E-08    -7.6857860E+01   
                   3.3017798E-04     1.7999775E+02     3.6554553E-08     3.8374088E+01   
                   2.8114581E-06    -6.9754207E+01     2.1072206E-06    -9.4892623E+01     1.9677619E-04     1.7998647E+02     1.1601408E-06    -6.6618998E+01   
                   5.7411265E-07    -1.3322466E+02     4.1963457E-07    -1.7232810E+01     1.7651166E-07    -8.8039382E+01     4.5485971E-08     9.5241680E+01   
                   2.5359082E-03     1.7999941E+02     6.1656610E-08     9.0497512E+00     2.9450515E-08    -1.3763257E+02     5.5173693E-08    -1.6463587E+02   
                   4.0707993E-08    -1.0447214E+02     1.7786792E-08     4.1261911E+01     1.3101628E-08    -1.1023326E+02     1.1025830E-08    -4.6925676E+01   
                   9.0839061E-04    -1.7999694E+02     2.8415926E-08     1.0339645E+02     2.4980788E-08    -5.2694222E+01     9.7879367E-09     1.2949043E+02   
                   1.1155032E-07     1.0669599E+01     2.8525712E-09     5.5883584E+01     3.3058772E-08    -3.0667508E+01     5.1936779E-08    -8.5608824E+01   
                   1.2141100E-08     1.0857756E+02     1.1819845E-08    -4.0823736E+01     7.4253852E-08    -1.2360222E+00     5.7389206E-08    -1.0285093E+02   
                   8.7529780E-09     1.7168608E+02     1.4554075E-04     1.7999668E+02   
                   2.3894591E-06    -2.2398222E+00     2.5715595E-06     1.7753337E+02     9.2241625E-07    -1.5048414E+02     4.7761084E-04     1.7995770E+02   
                   1.2866937E-06    -1.0722572E+02     2.6091221E-06    -3.2615494E+00     3.5998950E-07     8.4777976E-01     7.5768238E-08     1.7593905E+00   
                   1.6253760E-07    -8.8337716E+01     7.3197112E-04    -2.6846983E-04     2.1608545E-08    -6.4299276E+01     6.8676156E-08    -1.4622472E+02   
                   1.0913048E-07     5.1164739E+00     3.7102925E-08     3.0527196E+01     1.4595853E-08    -5.6955249E+01     3.4368971E-08    -1.1664053E+01   
                   1.2825157E-07    -7.4858583E+01     7.5114209E-09     1.4961374E+02     2.1479094E-08     5.0547746E+01     3.4941551E-04    -2.8791294E-03   
                   1.0515981E-07     9.9354969E+01     1.8710532E-08    -9.1616926E+01     2.1958252E-08     1.5344388E+02     4.4216056E-08     8.4976163E+01   
                   1.3355548E-08     8.7140724E+01     3.3706278E-08     5.7567992E+01     1.2784923E-07     6.1129145E+01     7.3944542E-08     1.3616147E+02   
                   7.8618687E-09     1.6464695E+02     1.1928345E-07    -6.3576677E+00   
                   6.8204538E-07     5.9800646E+01     5.0570670E-07    -1.5690246E+02     4.3750220E-06     1.7780192E+02     8.4209662E-07    -6.5328941E+01   
                   2.4663992E-04    -1.7987082E+02     7.6752807E-07    -9.3208949E+01     3.1080613E-08     8.6127708E+01     8.7544538E-09     1.0106360E+02   
                   4.5469519E-08    -2.1263886E+01     2.5325745E-08     1.2212929E+02     2.4586508E-04    -2.4954915E-03     1.4316057E-08     1.5038372E+02   
                   3.7597718E-08     9.5498657E+01     4.4220061E-08    -9.2032240E+01     3.7248453E-09    -1.2740717E+02     2.4146021E-09    -9.4449532E+01   
                   9.8103890E-08     6.3636555E+00     7.1801251E-09     1.1061980E+02     2.8058977E-08     2.8483009E+01     1.2117056E-08     2.9356183E+01   
                   1.1738932E-04     1.5122278E-02     6.0004800E-09     2.1858983E+01     1.3174312E-08     6.4161506E+00     3.2452364E-08    -3.7442105E+01   
                   2.5004992E-09    -2.2810105E+01     3.3770466E-08     1.0873974E+02     7.0222597E-08    -1.7983936E+02     5.6909106E-08    -1.6497820E+02   
                   1.2303105E-08    -1.0225148E+02     5.2453008E-08    -6.0796281E+01   
                   2.2975949E-06    -3.9139591E+00     4.9794598E-07    -1.5936356E+02     2.0621342E-06     4.3363900E+01     4.3055958E-06     9.2350459E+00   
                   5.9288521E-06    -7.5980185E+01     4.7510616E-04     1.7995524E+02     1.6764794E-07    -3.0775742E+01     2.6770792E-08     2.0713917E+01   
                   9.7217230E-08    -3.6998476E+01     1.2123169E-07    -1.5755966E+02     4.6030262E-08     1.2423102E+02     9.2243868E-05    -1.7995921E+02   
                   3.5006605E-08     3.7869979E+01     9.7854640E-08    -1.0874053E+02     3.6325999E-08    -3.9253793E+01     1.0132696E-08    -1.0294738E+02   
                   8.2802448E-08    -1.3117362E+02     2.3382655E-09    -1.1772160E+02     7.8719115E-08    -1.3909910E+01     2.0942549E-08    -1.4377372E+02   
                   3.5792519E-08     1.3719569E+02     1.1102786E-08    -1.0973750E+02     3.6626772E-08    -8.8928068E+01     7.6014924E-08    -1.1315580E+02   
                   5.3789206E-05     1.7998279E+02     2.2678900E-08     1.2535777E+02     6.8283837E-08     1.1069726E+02     2.2862192E-08     1.7613208E+02   
                   2.7723535E-08     1.3666878E+02     4.3991459E-08    -1.3032448E+02   
                   5.6218066E-02    -1.2504027E-04     2.0296514E-07    -3.3508668E+00     1.0162806E-08    -1.2596246E+02     3.4120339E-07     1.0160159E+00   
                   6.1822626E-08     9.0761296E+01     1.5765010E-07    -2.1989585E+00     6.1443099E-01    -1.7999998E+02     1.1408366E-06     4.7295922E+01   
                   1.3668124E-06    -1.2659126E+02     7.5770875E-07    -1.0296284E+02     2.4236396E-06    -8.5369336E+01     6.1310525E-07     2.7228397E+01   
                   1.4558920E-02     2.6415230E-03     2.4445079E-06     3.5812074E+01     1.0886894E-07    -1.4544483E+02     1.5645612E-06     1.2448946E+02   
                   3.6569232E-06    -1.5359462E+02     1.8129305E-07    -7.4854218E+01     1.3032386E-06    -1.2533534E+02     4.5952247E-07     2.3355979E+01   
                   3.7409059E-06     1.2073921E+02     7.4493503E-04     2.8263773E-02     2.6131895E-07    -1.3721817E+01     2.2669962E-06     1.7897608E+02   
                   5.1284970E-07    -1.3324432E+02     2.6869074E-07     1.2429588E+02     1.3652053E-06    -2.7844865E+01     7.0340883E-07     2.6322338E+01   
                   1.5723671E-06    -1.0801447E+02     3.2644118E-06     3.1175502E+01   
                   2.4158962E-07    -1.4840531E+02     6.3389655E-03    -1.7999998E+02     5.5628295E-09     5.0317001E+01     9.2753849E-08     2.6534974E+00   
                   8.8109914E-09    -1.2800441E+02     7.1379939E-09    -1.0536673E+02     5.6392797E-07     1.3027601E+02     8.9835771E-02    -1.7999987E+02   
                   7.3350180E-07     1.7648012E+02     5.9252353E-07    -3.9677967E+01     3.4365725E-06    -1.7747526E+02     8.7299194E-08    -1.8994987E+01   
                   4.5912633E-07     7.3657107E+00     4.4299961E-06     1.2085932E+02     1.7380081E-07    -1.6570662E+02     2.9583873E-03     2.8882796E-04   
                   1.9437053E-06     1.3513895E+02     3.7361955E-07     1.4157245E+02     4.6470961E-06    -6.0290458E+01     1.2503242E-06     3.6652376E+01   
                   1.3732674E-06     7.2172293E+01     9.3811619E-08     4.7913914E+01     2.3486769E-07    -7.3690907E+01     1.4641625E-06     1.1118394E+02   
                   1.2391094E-06     1.3431589E+02     1.2188366E-07    -1.4448183E+02     1.6773908E-06    -6.5895002E+01     2.7730823E-06     8.1722959E+01   
                   2.5715994E-04    -2.4970522E-01     2.2500738E-06     6.5305679E+01   
                   5.0975917E-07     9.8076994E+01     1.0949633E-07    -8.4785402E+01     2.5359643E-03     1.7999998E+02     1.5749535E-07    -9.0938464E+01   
                   4.4384918E-08     4.8366167E+00     3.9283239E-08    -9.3576846E+01     2.4049395E-06    -5.2001028E+01     3.0183239E-07     1.1552996E+02   
                   3.7856701E-02    -1.7999988E+02     1.9373350E-06    -8.3267398E+00     4.1999876E-06    -8.2313617E+01     1.1777475E-06     9.9529725E+01   
                   1.7881596E-06     8.9314441E+01     4.1058491E-06    -1.5986059E+02     8.4546664E-08     1.2895380E+02     4.2875092E-07    -1.5792948E+02   
                   2.4842055E-03    -5.6650746E-02     3.8775259E-07    -1.2352333E+02     3.8864744E-06     1.3114520E+02     1.0029175E-06    -4.6867986E+01   
                   5.3884761E-06    -9.2983494E+01     4.3094661E-07    -5.6979919E+01     1.9946054E-07    -1.4431081E+02     4.2306920E-07     1.0895144E+02   
                   4.1796694E-07     1.0601336E+02     4.1961386E-07    -9.2411903E+01     8.2783142E-06    -1.6927599E+02     4.7302091E-06     1.2099249E+02   
                   2.0303302E-06     3.2957100E+01     2.5184342E-04    -3.1967212E-02   
                   3.1189563E-08    -1.4401538E+02     3.2363897E-08    -1.7492911E+02     2.5278669E-09     1.3864036E+02     7.3195736E-04     3.3706830E-04   
                   8.3614763E-09    -5.8670632E+01     8.7643750E-09    -1.7444394E+02     7.5236067E-07    -1.4695340E+02     1.3653756E-06     1.2030378E+01   
                   2.5806759E-07     2.4542150E+01     2.7376643E-02    -1.7999814E+02     2.7665144E-06    -3.9140984E+01     4.4050541E-07     2.3839191E+01   
                   7.6887476E-07     1.2779398E+02     1.6757891E-06    -6.6925828E+01     4.7456872E-07    -2.4872003E+01     2.0987086E-06     8.5842672E+01   
                   2.5928625E-06    -1.3728390E+02     2.5639435E-07     9.6655571E+00     2.5455427E-06    -1.7930809E+02     5.8206253E-04    -2.9108985E-02   
                   5.9101580E-07     3.8905655E+01     5.5183478E-07     1.6745692E+02     2.2792244E-07     2.2888331E+00     1.1167785E-06    -1.5539440E+02   
                   2.3839417E-07    -2.3784049E+01     6.1509683E-07     1.6279941E+02     2.3708427E-06     7.0626524E+01     2.0515715E-06    -2.0563379E+01   
                   4.2832739E-07    -1.4919030E+02     1.1435137E-06    -8.1553247E+01   
                   8.6471520E-08    -1.0230737E+02     1.6298511E-08     7.5857350E+01     4.8828838E-09     5.3128063E+01     2.9643982E-08     7.5404690E+01   
                   2.4586152E-04    -1.1325119E-04     5.8587221E-09     6.2055348E+01     5.9364980E-07     1.2764020E+02     9.2359610E-07    -1.7435636E+02   
                   8.0451383E-07    -1.2716341E+02     5.4700515E-07     1.7054590E+02     1.0345771E-02    -1.7999917E+02     2.3091985E-07    -1.1994098E+02   
                   2.7207950E-07    -6.5815385E+01     2.0901192E-07     9.4308943E+01     4.1860051E-07     4.4794920E+01     4.7709207E-07    -7.7562408E+01   
                   1.6412092E-06    -2.1950595E+01     3.4143401E-07    -1.3315729E+02     1.0836444E-06     6.7568351E+01     4.2718602E-07     1.3435508E+02   
                   4.4512844E-04     1.3226487E-01     4.5440620E-07     1.3673364E+02     5.5260977E-07     1.8393498E+01     1.7148411E-06    -1.4863828E+02   
                   2.4381927E-07     7.0381689E+01     4.4014089E-08    -9.0286811E+01     2.4257100E-06     2.4555701E+01     8.0716421E-07     3.0933512E+01   
                   1.3147668E-07    -1.5501430E+01     1.1544410E-06     1.5422411E+02   
                   3.5546849E-08    -1.1671247E+01     2.2174382E-08    -1.6413794E+02     1.2328337E-08    -1.0786349E+02     4.7384542E-09     6.6323857E+01   
                   3.0141011E-09    -1.2545209E+02     9.2187428E-05     1.7999921E+02     3.9760532E-07     1.2800845E+02     3.6370911E-07    -1.7050422E+02   
                   9.1226566E-07    -1.1924852E+01     5.4578062E-07     4.7212252E+00     1.7654868E-06    -1.6123956E+02     9.1479910E-03     1.7999922E+02   
                   7.2037299E-07    -1.1246695E+02     1.2667528E-06     1.1225277E+02     1.1293319E-06     1.6171856E+02     1.2889537E-06    -1.4264595E+02   
                   1.0910389E-06    -4.2352551E+01     1.3101550E-07    -8.5148456E+00     2.2032066E-06    -2.6455968E+00     1.6499747E-07     2.9927169E+01   
                   1.7184292E-06     1.1902143E+02     1.8522316E-07    -1.5587243E+02     5.5789265E-07     1.7515108E+02     1.0328955E-06     3.6098098E+01   
                   1.7866708E-04     8.7366382E-02     1.5530526E-07     2.5291554E+01     2.1251638E-06    -1.1358146E+02     1.8630887E-06     1.3677103E+02   
                   6.3454033E-08     8.3843903E+00     8.5003953E-07     8.1959718E+01   
                   1.7579711E-02     2.6078335E-04     5.4437976E-08     7.4826336E-01     2.1948343E-09     1.5255592E+02     9.8955844E-08    -1.8989475E+00   
                   2.2566040E-08     9.2707181E+01     4.3453050E-08     6.5260103E+00     1.4559408E-02     3.8238556E-04     7.9048288E-07    -7.7622910E+01   
                   8.4395331E-07    -6.6134477E+01     7.2198438E-07     1.3623094E+02     4.8714366E-07    -2.3170290E+01     3.2466555E-08    -1.1328595E+02   
                   4.0551096E-03    -1.7999684E+02     1.1983944E-06     1.6336626E+02     4.5994441E-07     1.3968297E+02     2.6000922E-07    -1.5747711E+01   
                   1.4176677E-06     1.4691292E+01     1.6741290E-07    -1.3651063E+02     6.7779430E-07    -1.3418564E+02     7.8243536E-07     1.6326558E+02   
                   6.3792215E-07    -7.3189423E+01     6.2361781E-04    -1.5811098E-02     2.5444559E-07     2.8192323E+01     1.7318079E-06    -3.0747595E+01   
                   1.8891701E-07    -1.7722919E+02     4.7602837E-07    -1.7448693E+02     2.1168939E-06     7.1847863E+01     4.7493853E-07    -7.5266652E+01   
                   7.4576052E-07     1.7489829E+02     4.5447632E-07     1.5494041E+02   
                   7.4568968E-08    -9.2464329E+01     6.7462465E-09     1.0204295E+02     6.7384859E-09    -1.7578858E+02     3.8603709E-09     1.6903702E+02   
                   9.0725755E-09     1.7903789E+02     2.0977467E-09     1.5448386E+02     1.0942804E-06    -9.6838052E+01     3.8916791E-08     1.4375491E+01   
                   9.0910786E-07     1.2011788E+02     6.3359226E-07     1.6038091E+02     1.3871913E-06     1.7678368E+02     2.6428358E-07    -9.0266043E+01   
                   1.6425597E-07    -1.4207376E+01     3.1616413E-03     1.7998421E+02     5.8191935E-07    -1.0533635E+02     8.1778399E-07    -1.4286357E+02   
                   3.1143045E-06    -1.9709390E+00     3.9153136E-07     5.8083549E+01     1.4894442E-06     1.1813711E+02     1.1862023E-08    -1.7288518E+02   
                   1.8973289E-06    -9.6924446E+01     3.7186799E-07     1.3686593E+02     1.1630472E-08    -1.3837430E+02     2.1864175E-06    -8.8708214E+00   
                   2.0014460E-07     1.1744327E+01     2.3109427E-08     1.2403085E+02     1.2174004E-04     1.5216149E-01     2.0873947E-06    -1.3521859E+02   
                   2.5988727E-07     8.0314750E+01     3.2150717E-07     1.7514902E+02   
                   3.7965015E-08    -1.1374031E+02     1.5687291E-08    -3.7933401E+01     7.0913576E-09    -5.8492862E+01     3.6060499E-09    -4.5831717E+01   
                   1.1585384E-08     9.5165325E+01     1.0037856E-09     1.1894413E+02     5.3366089E-07    -9.9810981E+01     6.3301253E-07     5.5477245E+00   
                   1.0139178E-06    -1.0845871E+02     6.4393338E-07    -7.8016975E+01     9.2539646E-07     1.4070549E+02     4.4783509E-07    -1.2924290E+01   
                   2.2085156E-07     8.3620851E+01     4.6612606E-07    -1.7155834E+02     3.2320619E-03    -1.7999624E+02     8.4106688E-07     1.4266066E+02   
                   1.1108203E-06    -1.1598733E+02     4.9801420E-07    -1.5850476E+02     8.1297071E-07     1.7147956E+02     8.4574793E-07    -1.4815854E+02   
                   1.5660581E-06     1.4015082E+02     5.7613202E-07    -1.7136041E+02     6.0612153E-07    -3.1912867E+01     1.9467578E-06    -1.6277289E+02   
                   4.9406650E-07    -5.3957596E+01     1.1173938E-06     1.6862324E+02     2.0343513E-06     4.1602585E+01     1.4002543E-06     1.1327502E+02   
                   7.6807897E-07    -1.7008104E+02     7.9808598E-07    -1.4952479E+02   
                   9.0461739E-08    -1.1814299E+02     2.3127972E-03    -1.7999989E+02     2.5628525E-08     9.7076126E+01     2.5596097E-08    -1.0858372E+01   
                   3.5698242E-09    -1.2026981E+01     1.4048677E-08     1.2353449E+02     4.3556520E-07    -1.2396633E+02     2.9594176E-03     4.5654785E-03   
                   3.6237209E-07     1.6242283E+02     2.2377811E-07     1.2227167E+02     2.2439261E-06    -6.1581984E+01     5.6224005E-07    -1.6947810E+02   
                   2.5313200E-07     1.5677769E+02     2.4615340E-06    -4.0759650E+01     3.9165690E-07     1.5076280E+01     1.3014421E-03     1.7998524E+02   
                   1.5741657E-06    -1.0320978E+02     2.5590486E-07    -6.2093830E+01     1.4856736E-06     1.1531280E+02     1.0319513E-06    -1.6613735E+02   
                   1.5781679E-06     1.3563261E+02     2.4198318E-07    -1.5620889E+02     2.5766340E-07     1.4825958E+02     4.5628933E-07     4.1877052E+01   
                   5.1851046E-07    -8.8065105E+01     6.3716032E-07     2.8481350E+01     1.5169667E-06     1.0959621E+02     1.6048020E-06    -7.1765813E+01   
                   2.1597248E-04    -2.7026730E-02     4.1577430E-07     1.0616239E+02   
                   7.6965938E-08    -1.5779304E+02     2.4943669E-09    -5.6531191E+01     9.0836257E-04    -1.7999942E+02     7.8804357E-09    -3.6554047E+01   
                   4.3689551E-08    -8.3769985E+00     7.0447120E-09    -1.3164822E+02     7.6088582E-07     2.8308832E+00     3.9294379E-07    -1.7846898E+02   
                   2.4786619E-03    -8.4979889E-03     3.3126090E-07    -1.6780706E+02     7.5232385E-07    -1.2690050E+02     3.7844908E-07     1.1387460E+02   
                   1.1079479E-06     6.6422795E+01     1.7906295E-06     1.7685040E+01     2.3865386E-07    -1.0087947E+02     6.7602061E-07    -1.4467410E+02   
                   9.1587541E-04    -1.7995592E+02     8.6714988E-08    -6.7475630E+01     1.0160730E-06     2.1990082E+01     7.1604532E-07     1.3001491E+02   
                   8.6826929E-07    -1.0048498E+02     3.6246807E-07    -6.4783642E+01     1.3784769E-07    -5.6076791E+01     1.4128672E-06     1.2707182E+02   
                   4.5735275E-07     7.6190195E+01     1.0435722E-07    -1.4500139E+02     3.9297861E-06    -1.7586352E+02     1.2182660E-06    -1.6716179E+02   
                   8.0209906E-07     2.2427346E+01     1.6654859E-04    -2.5094091E-01   
                   4.6242391E-08     1.7710029E+02     1.0291866E-08    -2.0775361E+01     4.1107356E-09     1.8355964E+01     8.6134338E-09    -1.6062409E+02   
                   4.2560999E-09     8.9222572E+01     1.2664358E-08    -4.7830157E+01     3.6151334E-07     3.2701785E+01     8.8832005E-07     1.0680489E+01   
                   2.1544626E-06     6.0229660E+01     7.4795200E-07     1.7681509E+02     2.3973767E-06    -9.0343789E+01     5.9511436E-07    -1.3332208E+02   
                   6.3652516E-07    -1.5075265E+02     8.8943555E-07    -1.5228502E+02     7.8709921E-07     1.7957955E+02     7.0858553E-07     5.3023887E+01   
                   6.0202078E-07     1.0457675E+02     1.2126327E-03    -1.7998587E+02     2.6546648E-06    -1.1501377E+02     1.2021831E-06     5.3529142E+01   
                   3.7367516E-06     5.0513408E+01     3.4971394E-07     1.3928947E+02     1.3749874E-06    -1.7928424E+02     8.5465109E-07     1.3229614E+02   
                   8.2353496E-07    -1.6452448E+02     1.4993788E-06     1.1785937E+01     7.0810156E-07    -7.8034078E+01     1.7475540E-06     1.5827472E+02   
                   4.4659895E-07    -8.6582114E+01     3.3032201E-07    -1.7935212E+02   
                   1.7310267E-07    -1.2413309E+02     7.8163634E-09     5.1748492E+01     4.3968533E-09    -2.2497069E+01     2.8718447E-09     1.0729922E+02   
                   5.1516701E-09     4.3303101E+01     3.6632261E-09     1.7764699E+02     8.3475969E-07    -1.1414154E+02     9.7021797E-07    -1.0072006E+02   
                   1.1727874E-06    -8.9755324E+01     5.2914031E-07     7.8389070E+01     1.7677431E-06     8.0569994E+00     6.7102724E-07     1.0456248E+02   
                   2.9370443E-08     1.6576381E+02     1.6469538E-06     1.2616518E+02     3.4561870E-07     9.1208061E+01     7.7737272E-07     1.2571706E+02   
                   1.5489938E-06     3.9241322E+01     3.0135534E-07    -1.0153833E+02     1.0464026E-03    -1.7997156E+02     3.0342134E-07     3.7133705E+01   
                   1.2626975E-06     5.2913146E+01     6.2047458E-08    -5.7462321E+01     6.2072264E-07     4.8714617E+01     1.9449084E-06     1.2512367E+02   
                   3.2608047E-07    -2.6887715E+01     1.4965580E-07     6.3457844E+01     1.1205083E-06    -1.4649248E+02     9.3724675E-07    -3.7048714E+01   
                   6.5195888E-07     8.9875685E+01     6.3447390E-07    -1.1162072E+02   
                   7.2748681E-08     2.7686074E+01     2.1808739E-08    -1.5784243E+02     2.8868257E-08    -8.0457998E+01     3.4942017E-04    -5.1325856E-04   
                   1.4469964E-08    -9.1621188E+01     1.1700812E-08     1.4704906E+02     2.8911869E-07    -1.5683902E+02     1.1598115E-06    -1.3074614E+02   
                   6.8615215E-07    -1.4121242E+02     5.8216968E-04     5.3350169E-03     1.0927147E-06    -1.3673958E+02     6.3412575E-08    -1.3880938E+02   
                   8.0473387E-07    -1.5758486E+02     1.6350590E-06     1.2529998E+02     6.4134766E-07    -1.7386388E+02     3.6407246E-07    -7.6346002E+01   
                   7.9972791E-07     1.2195783E+02     1.4016810E-07     1.3249639E+01     1.6420687E-06    -6.6526277E+01     4.4632953E-04    -1.7999941E+02   
                   2.2553269E-06     1.2714766E+02     1.7897800E-06    -1.7961780E+02     4.0282401E-07    -9.4337481E+00     4.7114201E-07    -9.1328019E+01   
                   2.0200799E-07     1.5966568E+02     3.2487409E-07    -1.6678763E+02     6.6753301E-07     1.2768810E+02     1.9023057E-06     1.0947147E+02   
                   4.7204256E-07    -6.5748531E+01     1.8239715E-06    -5.3143038E+01   
                   1.1265924E-07    -5.5040443E+01     9.3059082E-09    -1.3076115E+02     6.8070042E-08    -1.7962139E+02     6.9270951E-09     8.2004885E+01   
                   1.1731607E-04     1.0660742E-03     6.7404368E-09     7.8990723E+00     6.5373114E-07    -8.7643647E+01     5.3571609E-07     5.9323002E+01   
                   1.3225030E-06     7.6108226E+01     8.8951693E-07     3.5648553E+01     4.4615071E-04     2.3005020E-02     4.8172583E-07     1.3260641E+02   
                   2.6651738E-07    -1.1376201E+02     9.4712861E-07     1.6686729E+02     2.4750416E-07     1.5204665E+02     8.6580823E-07     5.4218520E+01   
                   1.6524961E-06     4.8381132E+01     2.0296100E-07    -1.2654490E+02     1.7485433E-06    -5.3419154E+01     7.2041912E-07     7.3947389E+01   
                   3.3163093E-04    -1.7985120E+02     6.8807371E-08    -7.8856512E+01     5.1416482E-07     1.3609773E+02     2.1287582E-06     4.0212473E+01   
                   5.0923762E-07     1.3014553E+02     1.1220788E-07    -2.7149320E+01     2.8219841E-07    -1.1108254E+02     7.6068506E-07    -9.7698650E+01   
                   1.2953571E-07     9.3525784E+01     2.3777545E-06    -2.5277529E+01   
                   1.3297170E-03     1.2547826E-03     1.5278065E-08     7.3305557E+01     1.0684807E-08    -8.2453608E+01     2.0177083E-08    -5.1023545E+01   
                   1.8092965E-08     9.3654852E+01     1.4486648E-08    -1.0663385E+02     7.4645964E-04     9.9807607E-04     1.7947082E-07    -1.8580686E+01   
                   6.0848456E-07    -2.6918521E+01     1.3455881E-07     6.9043858E+01     2.1040336E-06     1.2212230E+02     3.5014522E-07    -1.0435286E+02   
                   6.2486040E-04     4.3949277E-03     2.1991395E-07     1.5999056E+02     2.5834446E-07    -1.1890698E+02     2.6960528E-07    -4.0728242E+01   
                   4.4236627E-07     5.9500697E+01     5.2276325E-08    -4.4164976E+01     4.2318220E-07     4.2928372E+01     2.0319495E-06    -1.7618165E+02   
                   1.8834067E-06     2.6192502E+00     2.0924109E-04    -1.7993561E+02     4.6930328E-07    -1.7270260E+02     2.8844561E-07    -4.4227825E+01   
                   7.0540962E-07    -1.6882884E+02     3.1581140E-07     4.2766080E+01     1.2741810E-06    -1.3088319E+02     4.8747242E-07    -1.5954757E+02   
                   1.6348239E-06     1.6127056E+02     1.7430948E-06    -1.5186834E+02   
                   6.9269346E-08    -6.9880390E+01     1.4011789E-09     1.6154337E+02     5.3876158E-09    -9.0249293E+01     4.6205972E-09     7.6157461E+01   
                   1.0482318E-08    -7.3831261E+01     4.9318297E-09     1.7588482E+02     4.9740867E-07     2.4126561E+01     1.6602055E-06     9.2814830E+01   
                   1.2040410E-06    -1.2023877E+02     1.1759838E-06    -1.4949770E+02     1.3766342E-06     1.7712506E+02     8.0549163E-07     1.4769431E+02   
                   5.4072056E-08    -1.2291866E+02     1.5333515E-06    -2.9673100E+01     3.0505239E-07     2.0720521E+01     6.6034811E-07    -1.7066276E+02   
                   7.9097810E-07    -1.2826782E+02     8.6360934E-07     1.6935788E+02     1.4925609E-06     1.7057993E+02     6.2928651E-07     4.7650672E+00   
                   1.4675240E-06     8.1901042E+01     3.0949399E-07    -1.7071722E+02     4.8396736E-04    -1.7999991E+02     4.8784976E-07     2.2939547E-01   
                   3.7212987E-07    -7.7155104E+01     1.2409622E-06     1.6899712E+02     1.1194614E-06    -1.5984729E+02     3.5737977E-07    -1.2574541E+02   
                   5.9741121E-07    -1.2323493E+02     1.0404651E-06    -9.8323071E+01   
                   2.0823559E-07    -1.1468063E+02     8.8715784E-09     3.1802312E+01     3.0770968E-09    -2.2353241E+01     1.0144381E-09    -1.0907662E+02   
                   3.5214319E-08    -1.7917390E+02     3.1812169E-09     7.3751540E+01     1.1069762E-06    -5.8146674E+01     5.6056999E-07    -1.6648320E+01   
                   8.5173152E-07     1.0756031E+02     4.3116127E-08    -9.1868343E+01     7.0620774E-07     5.7833551E+01     3.8587132E-07    -1.6873162E+02   
                   4.1475186E-07     3.4987278E+01     1.0932092E-06    -1.5466802E+02     2.0968973E-07     1.7819481E+02     5.7708362E-07     5.4076202E+01   
                   9.6538853E-07    -1.4220706E+02     2.6218798E-07    -1.0383081E+02     1.5230722E-06    -4.2620308E+01     9.8079429E-07    -1.0941669E+02   
                   1.5055928E-06    -4.5842326E+01     2.8627608E-07     9.1330941E+01     3.0474893E-07    -5.3348152E+01     3.9550554E-04     1.7993091E+02   
                   1.9835684E-07    -2.9987699E+00     1.6863283E-07     1.4467962E+02     1.9324391E-06     9.9131454E+01     1.4347743E-06     5.0532933E+01   
                   6.5508884E-07     1.0722331E+02     2.3818140E-06    -2.4091159E+01   
                   1.2855778E-07    -6.2123365E+01     7.5941846E-09     6.8806346E+01     7.4729148E-09    -1.2799565E+02     4.2648585E-09     1.6874054E+02   
                   3.1718989E-09     1.2645353E+02     5.3828716E-05     1.7999319E+02     7.3988813E-07    -4.2561106E+01     2.2408479E-07    -5.1495051E+01   