! S-parameter export from POSTFEKO
! Filename: circular_2wg_6_24_modes_ratio_2
! Creation date: 2020-01-20 22:34:23
! 
# Hz S MA R    5.0000000E+01 
  2.0000000E+09     6.1421773E-01    -1.7999997E+02     4.2761814E-07     5.0636973E+01     8.2631318E-07     7.6161831E+01     3.1438536E-07    -1.1275533E+02   
                   1.0513728E-06     7.5108957E+01     3.1141054E-07     3.8397971E+01     5.6474030E-02    -1.1778921E-04     2.1195807E-07    -1.9273613E+00   
                   2.4386144E-08    -1.0130939E+02     3.4681006E-07    -1.1982353E+00     6.4718254E-08     8.7979856E+01     1.4826773E-07    -6.5886539E+00   
                   3.0637278E-04    -1.7999886E+02     4.4358670E-08     8.9151471E+01     4.5477519E-08     1.7423678E+02     1.0386218E-07     1.7860645E+02   
                   9.1029286E-08    -9.1001116E+01     1.0811736E-07    -1.7039729E+02     1.0326476E-07    -9.2929976E+01     1.0792120E-07     1.7214433E+02   
                   1.1031614E-07    -9.0338845E+01     1.3819071E-05    -1.7995013E+02     1.0575036E-07    -1.7956430E+02     1.1627306E-08     8.4925108E+01   
                   1.2804256E-07    -1.7730867E+02     1.4856402E-07     1.7672859E+02     1.2621291E-07    -9.1205052E+01     5.8987982E-08    -8.3619364E+01   
                   7.1084195E-08    -1.7510587E+02     1.5881450E-07     9.2258667E+01   
                   1.0755312E-06     1.2409589E+02     8.9825451E-02     1.7999954E+02     1.1604399E-06    -3.2811354E+01     6.6939778E-07    -6.1074705E+01   
                   1.3784976E-06    -7.5321206E+00     5.8365204E-07    -9.6733861E+01     1.3684782E-07    -1.7581088E+02     6.3458792E-03     1.7999994E+02   
                   9.0541884E-09     1.6600377E+01     8.7899871E-08     3.1976025E+00     3.3552752E-09     5.8460296E+01     6.2182764E-09    -9.1032965E+01   
                   1.1754099E-08     1.7987508E+02     3.2054748E-09    -4.3488358E+01     2.8027949E-08     1.6953602E+02     4.0414241E-05    -5.3477358E-03   
                   4.9038723E-09     1.5903012E+02     9.7431986E-09    -1.4765544E+02     4.0396520E-08     9.5212977E+01     1.2015925E-08    -3.8273966E+01   
                   9.2505225E-09    -6.7024075E+01     4.2198616E-09    -1.6533047E+02     2.3724689E-08     1.0242017E+01     2.7151430E-08     9.7558948E+01   
                   1.2190397E-08    -3.8616837E+01     3.3987669E-08     5.5168768E+00     8.0148825E-09     6.2161522E+00     2.7995869E-09     6.2664464E+01   
                   2.6963042E-06    -7.4348693E-02     1.0961319E-08    -1.2584074E+02   
                   3.0177828E-07     8.8510193E+01     6.1899144E-07    -3.7284295E+01     3.7864159E-02    -1.7999828E+02     1.1949883E-06    -4.1695996E+01   
                   2.8681493E-06    -1.5653650E+02     1.8569115E-07    -7.5374772E+01     3.3586895E-07     9.7814850E+01     1.0252501E-07    -9.8079151E+01   
                   2.5386458E-03     1.7999984E+02     1.5398706E-07    -8.9088038E+01     1.9049550E-08     2.2288495E+01     4.5123267E-08    -8.8152045E+01   
                   9.4350899E-08    -8.8325594E+01     7.6737689E-09    -1.2053948E+02     3.3447374E-08     8.7440160E+01     9.1140465E-09     7.6244843E+01   
                   4.1163641E-05    -2.0215513E-02     1.9680054E-08     8.5850696E+01     2.8292462E-08    -1.5581673E+02     8.1761347E-08     8.9307413E+01   
                   2.2266352E-08    -1.6055238E+02     7.1584849E-08     8.6151572E+01     3.8251877E-09     4.4610546E+01     2.7578690E-08    -1.4388890E+01   
                   1.8944148E-08    -8.9522262E+01     3.3754298E-09    -3.3306763E+00     3.1921805E-08    -1.5253918E+02     6.9743455E-09     7.1800777E+00   
                   7.3145714E-08    -9.1630625E+01     1.2259290E-06     2.0027348E+00   
                   7.4849705E-07    -1.9821360E+01     7.4841039E-07     3.0983971E+01     1.7093074E-06    -1.4276024E+02     2.7375554E-02    -1.7999854E+02   
                   2.3261059E-06     1.4627969E+02     5.9724422E-07    -3.2160879E+01     1.9462804E-07    -4.7080234E+01     2.6042733E-08     1.6319412E+02   
                   1.1807854E-08     1.0145054E+02     7.3216523E-04     5.4739994E-04     1.0021305E-08    -1.0289568E+02     1.1633349E-08    -1.7683221E+02   
                   1.0890330E-08    -1.4508285E+02     5.8841896E-09    -9.6606433E+01     4.3749366E-09     7.5191333E+01     9.0390423E-09     5.9751567E+01   
                   2.2113501E-08     6.5351281E+01     2.5357309E-09    -3.7677699E+01     9.9580578E-09    -1.6071839E+02     4.5080656E-06     1.7992911E+02   
                   1.2093430E-08    -7.1141943E+01     1.0863993E-08     2.9602977E+01     4.6908427E-10     9.6314323E+01     9.6450613E-09    -6.8918178E+01   
                   8.9248253E-09    -1.7137322E+02     4.5714771E-09     1.1436252E+02     1.2902668E-08     8.0834839E+01     4.7733739E-09    -1.6562612E+01   
                   3.4462675E-09    -8.9777894E+01     1.3321533E-08     7.9198209E+01   
                   1.3024487E-06     1.0144447E+02     4.2152996E-08     7.8458383E+01     1.1187731E-06     9.1834187E+01     3.7678919E-07     6.2513178E+01   
                   1.0346603E-02    -1.7999931E+02     6.0282293E-07    -1.2388648E+02     2.3672649E-08     1.6693282E+00     2.7027585E-08     8.2825552E+01   
                   1.0429332E-08    -1.7397679E+02     2.5405589E-08     7.6308385E+01     2.4593492E-04    -7.9940622E-04     8.2797144E-09     5.3521654E+01   
                   2.2965342E-08     9.9906979E+01     1.3989818E-08    -1.6741295E+02     3.2077413E-09     3.1878785E+01     2.2880181E-09    -1.2343400E+02   
                   8.7899312E-09     1.0728277E+01     1.1490108E-08    -1.1257647E+02     2.2840792E-08    -1.6039852E+02     1.0316297E-08    -1.2483522E+02   
                   4.2673933E-06     1.7978016E+02     8.2105504E-09    -9.3316298E+01     4.4795548E-09    -6.5002547E+01     1.4033259E-08    -7.5195825E+01   
                   2.9919798E-09     1.2480138E+02     2.4129620E-09     1.1124295E+02     1.8501413E-08    -1.7116727E+02     7.4387013E-09     1.5996214E+02   
                   5.9876269E-09    -1.7806308E+02     1.3818517E-08     1.0828216E+02   
                   4.3204120E-07    -1.7113086E+02     7.7849973E-07     1.1920238E+01     6.5950304E-07    -4.7925144E+01     7.5235380E-07    -6.9805817E+01   
                   1.2153228E-06     5.6188690E+01     9.1477071E-03    -1.7999545E+02     4.3835226E-08    -9.8942264E+00     1.2960578E-08    -1.3523491E+02   
                   3.3307868E-09     1.3286821E+02     5.9175805E-09     6.6713712E+01     5.2042939E-09     1.6265823E+02     9.2195603E-05     1.7999831E+02   
                   7.5456082E-09    -6.7275875E+01     2.6753274E-09     9.9958817E+01     8.4474476E-09    -3.9761612E+01     1.6457007E-09    -1.1592670E+02   
                   2.5404820E-09    -5.3383140E+01     1.1500030E-08    -1.1667162E+02     2.1111959E-08    -8.7752166E+01     2.7989059E-09     8.5656296E+01   
                   1.1678739E-08     1.0602074E+02     3.6437367E-09     7.5352484E+01     1.6813386E-08    -1.6896448E+02     1.2842722E-08    -3.8057854E+01   
                   5.1723801E-07     2.6410993E-01     1.8033922E-08     3.0446522E-02     2.7708373E-08     6.9684441E+01     5.0995481E-09    -5.1023951E+01   
                   7.1297232E-09    -1.6493365E+02     1.3178201E-08    -1.0256649E+02   
                   5.6474046E-02    -1.0368101E-04     2.0475668E-07     1.6188803E+02     4.7659596E-07     8.3632746E+01     7.1466427E-08    -3.1959410E+01   
                   1.7485858E-07     6.9305543E+01     8.9349214E-08     4.1583980E+01     1.6700128E-02    -2.8731890E-03     2.4786019E-06     1.7925216E+02   
                   1.0195618E-06     3.5885304E+00     2.3806632E-06     1.8354722E+01     2.5300422E-06     5.1556611E+01     2.6410098E-06     2.1472060E-02   
                   1.2517591E-04     8.5390268E-02     2.0530048E-06     3.2445020E+01     6.4930745E-07     1.6637008E+02     5.8607939E-07     1.7611080E+02   
                   2.9084437E-06    -2.1282355E+01     2.1049617E-06    -1.7315440E+02     9.6361649E-07     1.6194404E+02     1.4064472E-06    -1.7194332E+02   
                   4.2157111E-07     7.8893587E+01     2.3392745E-04    -1.7996319E+02     2.3336000E-06     1.7769873E+02     2.5379301E-06    -9.6007014E+01   
                   4.7909232E-07    -1.1932577E+02     7.4091068E-07     1.5741791E+02     1.2504744E-06    -4.8187780E+01     1.4393989E-06    -1.6368411E+02   
                   6.4153318E-07     1.7876340E+02     1.7540202E-06     1.3527965E+02   
                   2.7152943E-07     7.5605932E-01     6.3458941E-03    -1.7999993E+02     1.3227893E-07    -9.4790513E+01     1.3732740E-08    -1.5784233E+02   
                   4.9159340E-08     3.3391779E+01     3.0870418E-08     1.5346018E+02     9.9757826E-07     1.5616492E+02     2.9058787E-04     1.4255732E-02   
                   2.3626814E-06    -8.3369394E+01     3.3822094E-06    -1.7809285E+02     1.0908940E-06     1.4828062E+02     1.6453427E-06    -6.2225907E+00   
                   1.1495791E-06    -1.7582283E+02     1.0300454E-06    -1.4205032E+02     3.1238578E-06     4.4191358E+00     3.0507638E-04    -2.9498458E-02   
                   1.9282177E-06     9.3835339E+01     4.2416859E-06     1.7685844E+02     1.2381770E-06     1.6140240E+02     9.0855608E-07    -1.5573651E+01   
                   2.1327811E-06    -1.6677935E+02     2.2556612E-06    -1.3827908E-01     7.2646460E-06     1.7839710E+02     1.6777896E-06    -9.6238871E+01   
                   5.9962963E-06    -1.7902749E+02     6.9782450E-06    -1.7850405E+02     2.6708568E-06    -6.2658617E+01     9.9194665E-07     1.7349354E+02   
                   2.3300246E-04     1.7996205E+02     1.1667692E-06    -1.1284711E+02   
                   8.4352047E-08    -1.0394450E+02     3.3777481E-09     9.8608769E+01     2.5386009E-03     1.7999926E+02     2.2596367E-08     1.5593863E+02   
                   2.4486263E-08     3.4674141E+01     5.3435108E-09    -1.6177486E+02     2.3067880E-06    -1.0338922E+02     1.1181431E-06    -1.0656083E+02   
                   1.9569336E-04    -1.7994417E+02     5.3074625E-07    -1.1910736E+02     4.5779079E-06     1.7377028E+02     6.7873631E-07     6.2574345E+01   
                   7.6557258E-07     8.3005196E+01     2.0990020E-06    -1.4781896E+02     1.0372905E-06     9.2327471E+01     5.7672884E-07     8.0321404E+01   
                   1.8497781E-04    -5.7025976E-02     5.8128445E-07    -9.8794219E+01     2.0321115E-06     1.5773133E+02     9.9756435E-07     5.6260348E+01   
                   7.3931360E-06    -1.6696646E+01     6.2024221E-07    -1.0329609E+02     2.2853671E-06    -9.2654086E+01     4.2549988E-07     1.4937021E+02   
                   1.9581126E-06    -8.8486471E+01     2.9036609E-07    -3.4032684E+01     1.0338750E-06     2.4112756E+01     3.3373781E-06    -1.6832511E+02   
                   5.5604465E-07     3.6507807E+01     1.7200510E-04     1.7956400E+02   
                   3.8682855E-07    -1.0326217E+00     7.1557878E-08    -1.6152766E+01     1.7275237E-07    -9.4832951E+01     7.3216675E-04     1.7095267E-03   
                   1.1923194E-08     6.2056378E+01     1.8424919E-08    -1.1970654E+02     3.5389587E-06    -4.4825434E+00     3.2787988E-06     1.7342714E+02   
                   1.8752825E-06    -6.7589000E+01     4.7838976E-04     1.7995241E+02     1.6849899E-06     7.9176916E+01     3.1924913E-06     2.8982564E+00   
                   2.8127633E-07     1.7552497E+02     1.3706187E-06    -3.8487980E+01     2.5496633E-07    -2.8072470E+01     2.2499588E-06     1.7615687E+02   
                   1.4617569E-06    -5.2061796E+01     2.3176782E-06    -1.7687523E+02     9.4981020E-07    -1.2042066E+01     2.8376947E-04     1.2090192E-02   
                   2.5874503E-07    -8.4711737E+00     2.8637665E-06     9.9010183E-01     1.2427379E-05     1.7974381E+02     1.7995529E-06     9.0489173E+01   
                   7.7355293E-06    -9.4663700E-01     1.7671152E-05     1.7954626E+02     2.0044484E-06    -2.4889821E+00     1.1453793E-06    -6.1277738E+01   
                   2.9340645E-06    -1.7870519E+02     1.8494359E-06    -1.7758538E+02   
                   5.1417759E-08     8.6491986E+01     8.8651495E-09    -1.3743444E+02     3.7098351E-08     3.7930067E+01     6.4446861E-09     1.4926731E+02   
                   2.4593328E-04     5.1646961E-03     3.6201314E-09     1.0682758E+02     1.3212594E-06     9.2660519E+01     1.7816427E-07     6.6151793E+00   
                   6.8993187E-07     1.1968823E+01     9.9593739E-07    -1.0058846E+02     2.4727489E-04     1.7993120E+02     3.6313803E-07    -3.3022315E+01   
                   5.3726202E-07    -1.5474391E+02     1.6331110E-06    -9.6193720E+00     2.5724396E-07     9.0881648E+01     2.7808866E-07     1.4855524E+02   
                   9.3416554E-07    -1.1451070E+02     6.0317441E-07     1.5196283E+02     1.0934727E-05    -9.0109458E-01     1.4139496E-06    -7.2838844E+01   
                   1.5887379E-04    -3.6124888E-02     2.6854074E-06    -7.1092207E+01     5.4727446E-07     1.6953640E+02     4.7213655E-06     1.7246275E+02   
                   2.8557710E-06    -9.7278137E+01     1.1542858E-06     6.5441139E+01     1.1900891E-05     5.5411193E+00     2.0310022E-07    -4.1264249E+01   
                   1.7748095E-06     9.2672537E+01     4.3153227E-06    -1.7855536E+02   
                   1.9447748E-07    -6.0054472E+00     2.5032822E-08    -1.5408758E+02     7.8336389E-08    -1.4497410E+02     1.2153682E-08     7.5921583E+01   
                   1.2249164E-07     1.2938891E+02     9.2181257E-05    -1.7999526E+02     4.0019489E-06    -1.2439030E+01     1.3323775E-06    -1.0675982E+01   
                   8.5462665E-07     5.4323672E+01     3.5263061E-06     4.4992504E+00     1.3115585E-06    -9.8348498E+01     4.7521930E-04     1.7998342E+02   
                   6.3026141E-07     1.3263087E+01     2.4385361E-06    -4.0564422E+01     2.9021419E-06     2.3834606E+00     7.9088314E-06    -1.7888725E+02   
                   8.6592471E-07     2.2514696E+01     5.1370790E-07     1.6598744E+02     9.9394830E-07     1.2230938E+02     7.1871130E-07     1.6745183E+02   
                   2.1312624E-06     1.2277781E+02     2.4187503E-06    -1.7651444E+02     1.2379738E-05     1.7931736E+02     1.4544420E-06     7.3420734E+01   
                   2.0774088E-04     4.2893723E-02     1.2030226E-05    -1.7992318E+02     1.6444246E-06     9.3012321E+01     6.7708194E-07     1.3466680E+02   
                   2.4945368E-06    -3.8889492E+00     1.2897498E-06     2.4809214E+01   
                   3.0651729E-04     1.7999885E+02     5.7858730E-09     1.0807549E+02     1.0541106E-07    -7.9464607E+01     4.8952010E-09     1.3056689E+02   
                   2.5657054E-08     3.4100903E+01     1.2336143E-08    -2.4256515E+01     1.2199344E-04     3.4892603E-01     8.9151888E-07     1.7284506E+02   
                   7.3249600E-07    -1.0765599E+02     1.3630736E-06    -1.6855867E+02     1.8018597E-06    -5.4802028E+01     1.1082664E-06    -2.7328867E+00   
                   8.2624783E-05     1.7981676E+02     9.9342692E-07    -5.0270038E+01     3.9051757E-06    -4.2964870E+00     2.0265555E-06    -2.6251445E+00   
                   1.2086167E-06    -7.1896830E+01     6.0686305E-06     3.0091551E+00     9.3934941E-07    -6.1243554E+01     1.3140766E-06     1.5699552E+02   
                   1.6906031E-06    -1.3236217E+02     1.5792198E-04    -8.9115566E-02     7.4881878E-07    -6.4078723E+00     9.8193111E-07     1.1683093E+02   
                   6.5657669E-07     1.7663721E+02     8.5662542E-07    -1.6587733E+01     3.1399518E-06     9.9661812E+01     1.3675068E-06     7.8211450E+01   
                   2.3597472E-06     1.7810323E+02     1.9183515E-06     1.3440993E+02   
                   5.1331141E-08     8.4943603E+01     3.2600042E-08    -7.6090906E+01     1.8127109E-08    -9.9948094E+01     1.7563187E-09    -9.2571602E+01   
                   1.0581843E-08    -1.0759205E+02     1.8562762E-08     8.9045538E+01     5.7054348E-07     6.0952673E+01     7.8658001E-07     6.4822652E+01   
                   4.6521922E-07     5.8080170E+01     1.9983820E-07    -4.5991761E+01     8.0039052E-07    -1.5317052E+02     1.4079328E-06    -9.8688029E+01   
                   1.0177172E-06     9.5576438E+01     2.5170396E-04     1.7993596E+02     2.6658515E-07    -6.2357743E+01     8.1609954E-07     7.5773807E+01   
                   3.3081139E-06     1.7205860E+02     1.4052186E-06     1.4372166E+02     6.0856570E-06    -1.7737379E+02     1.3150021E-06     9.6429685E+01   
                   7.1500856E-06    -6.3147256E+00     8.5911952E-07    -1.0471165E+02     1.5216696E-06     9.6381880E+01     1.5620604E-05     1.6232970E+00   
                   3.6717073E-06    -9.9088859E+01     7.9815503E-07     6.8856813E+01     1.7098555E-04    -7.7674261E-01     1.6500948E-06    -4.6655367E+01   
                   1.2437022E-06    -1.0268359E+02     1.2277346E-06    -6.2939412E+00   
                   2.3674554E-09    -1.6239146E+02     3.5535494E-08    -1.3893900E+02     7.0563167E-08     8.4553520E+01     1.0565712E-08    -8.0485922E+01   
                   4.3722564E-08    -1.7629513E+02     1.9297904E-08     9.6868015E+01     1.3390952E-06     1.7992958E+02     3.3421518E-06    -2.1155968E+01   
                   1.3324084E-06     5.9908013E+01     9.2757573E-08     1.2679406E+02     3.4701902E-06    -7.9840672E+01     3.8736770E-06    -6.2945920E-01   
                   2.6217178E-06    -1.5355090E+00     2.5369392E-06    -1.1196124E+02     3.1589952E-04     1.7998542E+02     2.4532081E-06    -2.8716319E+00   
                   1.2676408E-06     1.3887852E+02     2.7032105E-06    -1.0475362E+00     7.0130819E-07     1.4191193E+02     1.3316108E-05    -1.7980884E+02   
                   2.9142946E-06    -1.7928179E+02     5.1312142E-06    -1.7742237E+02     1.0749998E-05    -3.4341887E-01     1.4836235E-06    -1.1694427E+02   
                   4.6180893E-06    -1.7646064E+02     1.4540852E-06     1.7257496E+02     4.8087986E-06    -8.7357208E+01     9.9275271E-07     1.2550685E+02   
                   2.7781127E-06     1.2570220E+00     2.0262289E-06     3.3132791E+01   
                   1.1340151E-07    -1.7338970E+02     4.0467898E-05     9.4273811E-03     4.9635379E-08     9.8613262E+01     1.5434421E-08     7.4893321E+01   
                   7.4851390E-08    -1.3078067E+02     9.6587710E-09    -1.2615812E+02     9.0744969E-07     1.7526500E+02     3.0210017E-04    -3.2455381E-02   
                   5.6040539E-07    -1.3095635E+02     1.2924027E-06     1.7086300E+02     3.9680139E-06     9.0476949E+01     7.7507776E-06     1.7730121E+02   
                   2.3330159E-06     6.7955917E+00     2.3496757E-06     7.1787762E+01     1.7694450E-06    -3.5678618E+00     7.9930847E-05     7.0031856E-02   
                   4.6026623E-06     9.1333757E+01     4.5534291E-06    -4.1939287E-01     1.0820358E-06     1.0527610E+02     4.8507184E-06     1.7709909E+02   
                   2.7349951E-06    -9.3350166E+01     8.9217385E-06    -1.7849399E+02     1.1519263E-05    -5.4620619E-01     2.0485335E-06     1.0768406E+01   
                   9.4256293E-06    -1.7759393E+02     2.8869021E-06     3.6401620E+00     3.3808661E-06    -1.2204356E+02     2.4585795E-06     7.6668937E+01   
                   1.0265194E-04    -4.8668238E-02     2.4410678E-06     5.9634690E+01   
                   1.3427592E-08     7.5819320E+01     6.8539974E-09    -6.3031086E+01     4.1151968E-05    -3.0480249E-02     1.3042202E-08    -1.3966091E+01   
                   1.2728062E-08     1.7302115E+02     5.3757656E-09     8.2437695E+01     4.6176579E-07     7.2065611E+01     1.9378931E-07     1.2464352E+02   
                   1.8172484E-04    -6.7674505E-02     8.4806238E-07    -9.8076291E+01     8.4344275E-07    -2.3460874E+01     4.5940319E-07     1.1362907E+02   
                   7.9500639E-07     1.3729835E+02     3.0931079E-06     1.6617771E+02     5.6449613E-07    -8.2427453E+01     4.2813153E-06     8.9871229E+01   
                   2.8349671E-04     1.7968082E+02     7.6225991E-07    -7.7904198E+01     5.0879219E-06    -2.7987694E+00     2.3567552E-06     9.5954014E+01   
                   5.9115274E-06     1.6590840E+02     1.6384074E-06     1.2048714E+02     2.2911879E-06    -8.6505910E+01     4.9263893E-06    -1.7514749E+02   
                   4.5289651E-06     8.9785448E+01     2.2801291E-07     8.2084834E+01     1.2754973E-06     6.4286078E+01     2.4429444E-06     2.5933372E+01   
                   1.2465794E-05     8.7519605E+01     1.2749987E-04    -5.4419332E-01   
                   8.2486708E-08    -1.7584388E+02     4.3653406E-08    -2.9631017E+01     7.3113013E-08     2.0266320E+01     2.2088906E-08    -1.0486630E+02   
                   9.8409956E-08    -2.1545372E+01     3.0944074E-08     1.6095993E+02     2.3659114E-06     1.6071822E+02     5.3076082E-06     1.7819062E+02   
                   9.5872686E-07    -9.3528820E+01     2.0171310E-06    -1.7901764E+02     7.0314681E-07    -5.9283521E+01     3.4041255E-07    -1.5508957E+02   
                   5.7704203E-06    -1.6066729E+00     2.4781383E-06    -1.4665627E+02     2.9046125E-06     3.6326019E+00     3.7763276E-06     1.7023441E+00   
                   2.2081767E-06     1.5315522E+02     2.6841694E-05     1.7994348E+02     2.9062365E-06    -9.2874867E+01     2.2048238E-06     1.4286642E-01   
                   4.4037509E-06    -8.5495441E+01     8.3756234E-06    -1.7962439E+02     2.7588580E-05    -3.9960647E-01     2.8331918E-06     1.4965751E+02   
                   1.6516780E-05     1.7995564E+02     1.8774055E-05    -3.9501037E-01     2.6537475E-06     7.5164514E+01     1.5394840E-06     1.3357560E+02   
                   5.6864130E-06    -1.7974625E+02     1.0793962E-06     1.0534070E+02   
                   8.7654243E-09     1.1854406E+02     1.7448387E-08     1.3781049E+01     9.3917092E-08    -1.7157891E+02     2.4643653E-09     1.7954626E+02   
                   2.3986976E-08    -1.5544129E+01     6.0372805E-09     7.9733379E+01     2.6284527E-07    -1.2412497E+02     6.9025322E-07    -7.8721487E+01   
                   3.6131280E-07     7.8696276E+01     3.8230485E-07    -5.9598508E+01     1.2810120E-05    -3.0737300E+00     8.7709051E-07    -9.5126585E+01   
                   6.3020222E-07     6.7808411E+01     2.7318895E-06     1.7699715E+02     4.5263907E-07    -1.5399318E+02     6.2646499E-07     1.5246580E+02   
                   3.3076265E-06    -4.7054123E+01     6.2874341E-07     7.0748371E+01     2.6941798E-04     1.7984230E+02     4.1042209E-06     9.6879606E+01   
                   7.8100426E-06     1.7519886E+02     4.6943059E-07     2.3518319E+01     8.8212518E-07     1.0983995E+02     6.7943182E-06    -1.7695888E+02   
                   4.3142304E-06     1.0004242E+02     1.4763347E-06     8.6408776E+01     5.6023144E-06    -2.0180363E+01     2.2526522E-05     4.9912143E+00   
                   3.2144178E-06    -8.4910014E+01     4.2954771E-06     2.0784556E+01   
                   1.7256661E-07     1.7524006E+02     2.0534076E-08     4.4888028E+01     5.0794834E-08     8.5941107E+01     4.4991394E-06    -1.7993004E+02   
                   3.4111788E-08     1.6324121E+02     5.2696901E-09    -6.0604920E+01     1.7052554E-06    -1.7323206E+02     1.0074557E-06    -6.4390268E+00   
                   6.8258468E-07     1.2400494E+02     2.7974911E-04    -5.5548332E-02     4.6574112E-06    -9.8789674E+01     1.2292414E-06     1.6733383E+02   
                   2.5666832E-07     1.2161392E+02     2.6828801E-06     1.2036956E+02     1.3153673E-05     1.7979680E+02     4.4601502E-06    -1.7802315E+02   
                   2.7408430E-06     7.5712480E+01     2.4150457E-06     2.5637363E+00     6.2220595E-06     8.7003105E+01     3.1554870E-04     1.4445010E-02   
                   4.9615472E-06     9.3074137E+01     2.4714164E-06    -1.7708354E+02     7.9679914E-06     1.0515209E+00     2.6933128E-06     8.9291185E+01   
                   1.2058940E-05    -1.7572189E-02     7.5583625E-06    -1.3768629E+00     4.3662715E-06     9.7061083E+01     2.0592186E-06     8.9484329E+01   
                   7.6289890E-06    -1.7909027E+02     1.9216894E-06    -1.1531905E+02   
                   4.0288065E-08    -9.6217746E+01     3.3719802E-08    -1.0994405E+02     3.9726019E-08    -6.7183944E+01     1.0471002E-08     9.4783430E+01   
                   4.2532125E-06    -1.7995859E+02     1.1716925E-08     7.7395726E+01     2.4996317E-07    -5.9639388E+01     1.9894861E-07    -1.7578304E+02   
                   8.7483933E-07     1.4490490E+02     8.1723263E-07     7.5253140E+01     1.6422412E-04    -3.2181233E-01     4.5178152E-07    -1.3168591E+02   
                   1.5703254E-06    -9.7375462E+01     7.1068751E-06     2.1056621E+00     1.3880824E-06    -7.8916500E+01     7.7323476E-07    -9.3478516E+01   
                   4.9907098E-06    -1.7764399E+02     3.8188516E-06    -8.7146806E+01     4.9148706E-06     1.7594753E+02     3.2598770E-06     9.1419879E+01   
                   3.4779876E-04     1.7993538E+02     2.9908161E-06    -9.7701811E+01     6.8688560E-07    -7.5905831E+01     7.2038347E-06    -1.7759220E+02   
                   5.4243255E-06     9.5117433E+01     3.6047585E-06     9.5587178E+01     4.4412462E-06    -1.7794775E+02     7.5183125E-07     1.6045380E+02   
                   3.8198209E-06    -8.8248286E+01     7.8077495E-07    -2.2381947E+00   
                   1.3436331E-05    -1.7993950E+02     2.7614923E-08    -1.8240238E+01     7.5428532E-08     1.1414866E+02     8.0769910E-09    -4.7526142E+00   
                   3.7095196E-08    -1.3192024E+02     1.3324394E-08     5.6457990E+01     2.3026110E-04    -1.7994584E+02     1.6188369E-06    -2.9195334E+00   
                   1.5287899E-06    -8.1408513E+01     3.0421441E-06     7.6085577E+00     1.3561569E-06     1.3443374E+02     3.2899213E-06     1.7627044E+02   
                   1.5882439E-04    -1.4333832E-01     5.2143513E-07    -1.6224135E+02     5.3317557E-06     1.7557162E+02     7.7282637E-06    -1.7990181E+02   
                   2.8196412E-06     9.7846517E+01     8.1740248E-06    -1.7794051E+02     2.2910350E-06     9.1008955E+01     2.9837334E-06    -1.7945603E+02   
                   5.9705995E-06    -7.3382928E+01     5.5458617E-04     1.7411963E-02     1.2870298E-06     1.7090099E+02     7.6047572E-08    -1.8511588E+01   
                   9.2249286E-06    -2.0596467E-01     1.1527064E-06     7.7216393E+00     1.6634438E-06    -8.2116462E+01     2.4494281E-06    -9.2664384E+01   
                   1.4928926E-07     1.4322220E+02     3.0320124E-06    -7.2383942E+01   
                   2.0754512E-07     1.7563035E+02     1.0010711E-07     1.3325277E+01     4.6933622E-08     1.4044311E+01     3.0034346E-08    -8.6593500E+01   
                   4.6540157E-08    -4.6628809E+01     2.7983153E-08    -1.5572780E+02     3.1840881E-06    -1.7989269E+02     6.5884384E-06     1.6861567E+02   
                   4.7109569E-06    -1.2041879E+02     1.2554340E-05    -1.7934118E+02     3.4117809E-06     9.0165229E+01     1.2185911E-05    -1.7881491E+02   
                   4.2964496E-07    -1.4789237E+02     1.6508946E-06     6.6806472E+01     1.0681929E-05    -1.4141800E+00     1.1132807E-05    -2.4116544E-01   
                   3.7069946E-06    -1.4139841E+02     2.7954345E-05    -7.6199400E-01     2.1787754E-06    -1.4038602E+02     6.1423484E-06    -1.0479721E+00   
                   1.7918368E-06     9.2036162E+00     1.0982066E-06     1.5636233E+02     3.9102200E-04    -2.3051482E-02     3.5936155E-06     7.5490378E+01   
                   1.6066789E-05    -1.7960157E+02     4.6286324E-05    -8.4835048E-02     6.0398453E-06     7.3485989E+01     1.6982293E-06     1.0030503E+02   
                   1.3523817E-05     1.7965639E+02     2.6255328E-06     8.3399335E+01   
                   4.7044836E-08    -1.4257805E+02     1.4121357E-08    -9.2788641E+01     2.2965835E-08     5.4947672E+01     1.6897630E-08    -3.1873299E+01   
                   6.3340797E-08     4.2105470E+01     1.3679411E-08    -1.0603262E+02     2.7959541E-07    -7.3475122E+01     1.4247109E-06    -7.7395415E+01   
                   5.8765234E-06    -1.7872979E+02     2.0280775E-06    -9.2952329E+01     1.6727876E-06    -1.4920748E+02     1.5008267E-06    -4.8064975E+01   
                   1.0919651E-07     1.5959027E+01     1.5713954E-05     1.7897999E+00     3.5020728E-07    -6.4949515E+01     5.7903370E-07     1.7978546E+02   
                   7.1807900E-07    -9.5951091E+01     1.9056068E-06     1.3373190E+02     9.2624931E-06     1.7966504E+02     2.0596823E-06     9.5204763E+01   
                   7.5572257E-06    -1.7880793E+02     8.7016313E-07     1.0193389E+02     2.6284334E-06     1.0555047E+02     3.0082061E-04    -1.7977871E+02   
                   7.9663306E-06     1.0001357E+02     2.1670155E-06     6.6307224E+01     8.3410125E-06    -3.6937857E+00     2.6870033E-05    -2.6765599E-01   
                   2.6033416E-06    -9.5039360E+01     1.4779095E-05    -1.7990341E+02   
                   2.0554862E-07    -1.7707323E+02     4.0656590E-09    -1.4202453E+01     4.8116854E-08     1.1174601E+02     7.7581029E-09    -1.4896858E+02   
                   3.8237423E-08     3.3784052E+01     5.0614989E-07     2.9601778E-01     5.0009949E-07     1.0023532E+02     6.2403332E-06     1.7969085E+02   