! S-parameter export from FEKO
!   Filename:      circular_2wg_5modes_SParameter1.s10p
!   Creation date: 2019-12-29 10:51:38
! 
# Hz S MA R  0.00000E+00  0.00000E+00  0.00000E+00  0.00000E+00  0.00000E+00  0.00000E+00  0.00000E+00  0.00000E+00  0.00000E+00  0.00000E+00
! 
 4.0000000E+09  1.2808859E-01    0.001  9.6932538E-06   93.626  3.1856935E-02 -179.998  6.7323899E-06 -124.086
                2.1226934E-02    0.000  9.0356767E-01   -0.000  9.8351052E-06  -79.814  5.9209141E-02    0.002
                1.0712328E-05   79.246  3.7993600E-02  179.998
                7.9084411E-06   84.742  8.5227957E-03    0.009  2.1810623E-06 -104.854  7.8295119E-03  179.995
                4.0207063E-07 -152.565  7.7432690E-06   85.146  6.9877351E-01  180.000  7.3771818E-06  -95.818
                5.3466007E-02 -179.999  1.0052655E-05   84.028
                3.1863096E-02  180.000  1.5673705E-06 -155.950  1.3590304E-02   -0.001  4.1645183E-06   95.184
                1.1458016E-02 -179.999  3.6101693E-02 -180.000  2.9411178E-06   58.771  5.8756698E-01   -0.000
                4.3764469E-06  -76.350  6.2017540E-02   -0.001
                8.5230879E-06  -94.953  7.8266531E-03 -179.997  2.3200816E-06   86.521  7.6094799E-03    0.009
                7.4245242E-07 -106.064  7.8572173E-06  -86.460  4.0064342E-02    0.001  8.8513333E-06   88.217
                4.8937500E-01 -180.000  1.0465899E-05  -89.323
                2.1229118E-02   -0.000  4.4336390E-06  -81.884  1.1458190E-02  179.999  1.4961544E-06   76.705
                1.2378118E-02    0.002  2.1641494E-02   -0.003  3.5436957E-06 -130.895  4.3012944E-02  179.999
                1.3613781E-06  -23.541  4.1335755E-01   -0.000
                9.0356483E-01    0.000  6.3907870E-06   82.761  3.6099794E-02 -179.998  6.5620926E-06  -98.073
                2.1640140E-02    0.001  1.4797036E-01 -180.000  9.2862938E-06  -98.332  4.2568710E-02    0.003
                1.0141555E-05   83.047  3.0131221E-02  179.998
                8.2686232E-06  -94.249  6.9877199E-01 -180.000  2.9897853E-06   77.758  4.0062514E-02   -0.001
                1.7630267E-06  -77.681  8.8561898E-06  -98.272  2.0822729E-02 -179.998  9.4248231E-06   84.926
                1.9884968E-02   -0.003  1.1855451E-05  -96.117
                5.9205598E-02    0.000  6.5963325E-06  -84.802  5.8756704E-01   -0.000  7.8873794E-06   89.149
                4.3009915E-02  180.000  4.2566864E-02    0.002  9.5851075E-06   92.717  2.2820729E-02 -179.998
                1.0193772E-05  -91.946  1.8726640E-02    0.003
                7.8259740E-06  105.527  5.3466191E-02 -180.000  3.7640128E-06  -86.474  4.8937172E-01 -180.000
                9.3184263E-07   97.989  7.6150564E-06  100.145  1.9881630E-02   -0.003  1.0864186E-05  -92.777
                1.9884882E-02 -179.999  1.3898189E-05   92.767
                3.7991094E-02 -179.997  1.0525295E-05   86.540  6.2015997E-02    0.001  1.0953492E-05  -91.551
                4.1335657E-01   -0.000  3.0130727E-02 -179.999  1.0846113E-05  -90.988  1.8727262E-02    0.001
                1.4225357E-05   90.426  1.5590824E-02 -179.997
 4.5000000E+09  9.4924868E-01 -118.982  8.6098642E-06   32.584  5.8183274E-02  116.868  1.6405554E-05 -150.248
                3.6924370E-02  -61.203  1.2886995E+00  -14.806  1.3104911E-05 -141.158  8.8810124E-02  -55.087
                1.5476918E-05   25.942  5.9293965E-02  123.212
                1.2968538E-05   35.845  7.1369270E-03   12.683  3.5553155E-06  -70.524  7.2354929E-03 -173.162
                7.1481197E-07  -45.855  5.5994153E-06   -8.567  7.0722882E-01  179.824  7.9727139E-06  -85.406
                5.3220794E-02 -178.487  1.0148414E-05   94.112
                5.8181141E-02  116.867  4.2451162E-06  -76.370  1.4784205E-02  -12.675  3.8607494E-06   72.216
                1.2149638E-02  170.419  8.0561302E-02  165.193  2.4220602E-06   -6.268  5.9104064E-01    0.441
                4.0618821E-06 -159.236  6.3081839E-02   -2.818
                2.0555734E-05 -147.643  7.2336712E-03 -173.185  1.8094491E-06   63.641  7.3627022E-03    3.690
                1.6411320E-06 -137.893  2.9933931E-05 -105.775  4.0729411E-02   -1.681  8.6924691E-06  100.586
                4.9233506E-01  179.910  1.2753980E-05  -82.766
                3.6920148E-02  -61.208  3.6741762E-06  174.537  1.2150649E-02  170.419  8.1905974E-07    1.330
                1.2785381E-02   -5.660  5.0225492E-02  -14.805  5.2390659E-06  111.787  4.2829770E-02 -176.199
                6.6521083E-06  -56.847  4.1481262E-01    0.267
                1.2887029E+00  -14.806  1.5295452E-05   66.691  8.0550821E-02  165.194  2.2421182E-05 -103.463
                5.0217627E-02  -14.806  9.9999610E-01   60.389  1.7045721E-05 -103.749  1.1302342E-01  -14.805
                2.0970610E-05   76.339  7.6989940E-02  165.194
                1.1422480E-05 -145.662  7.0723280E-01  179.823  3.7978256E-06   79.885  4.0726875E-02   -1.680
                1.8301121E-06 -150.724  1.2060668E-05  -96.474  2.0580679E-02  171.541  1.0793781E-05   89.972
                2.0081642E-02   -5.585  1.3048591E-05  -89.636
                8.8806538E-02  -55.087  8.7863736E-06  -85.638  5.9103880E-01    0.441  8.4107974E-06   97.762
                4.2826919E-02 -176.201  1.1301872E-01  -14.806  1.0650053E-05   96.257  2.2832821E-02 -163.754
                1.3261962E-05  -86.803  1.8589706E-02   13.538
                2.2916413E-05   32.531  5.3218363E-02 -178.482  5.0553957E-06 -108.842  4.9233569E-01  179.910
                2.5710572E-06   44.001  3.1568863E-05   74.497  2.0074224E-02   -5.588  1.1354395E-05  -85.031
                2.0179670E-02  176.413  1.6427946E-05   92.989
                5.9292414E-02  123.214  1.1343180E-05   83.792  6.3081076E-02   -2.818  1.2455689E-05  -88.593
                4.1481204E-01    0.267  7.6986180E-02  165.195  1.5204938E-05  -94.538  1.8589508E-02   13.538
                1.6886974E-05   92.091  1.5399288E-02 -168.901
 5.0000000E+09  7.2087707E-02  170.656  3.3391456E-06    8.345  3.1569648E-02  122.891  8.2885965E-06 -147.007
                1.9967899E-02  -53.055  9.9740046E-01   -5.146  9.0650665E-06 -152.434  4.7937642E-02  -40.334
                9.3532816E-06   24.616  3.1981480E-02  136.088
                6.5269955E-06   12.781  6.5071923E-03    6.552  7.3610016E-07 -122.260  7.2273065E-03 -176.845
                2.1246717E-07  -64.993  8.7908946E-06   47.710  7.1503761E-01  179.919  9.5507533E-06  -96.568
                5.4237152E-02 -179.317  1.2784332E-05   93.926
                3.1574617E-02  122.896  2.6637683E-07  -99.619  1.3357125E-02   -4.609  2.5773925E-06  114.777
                1.1227663E-02  176.548  3.3872131E-02  140.963  4.9341830E-06  115.414  5.9863791E-01    0.150
                5.3274225E-06  -51.940  6.1762175E-02   -0.985
                1.0369799E-05 -123.822  7.2224228E-03 -176.851  3.3517129E-06  113.173  7.4895113E-03    1.637
                9.2889704E-07   16.005  1.1149504E-05 -130.811  4.0323529E-02   -0.780  1.1964020E-05   93.222
                4.9497018E-01  179.960  1.4499186E-05  -84.586
                1.9974171E-02  -53.061  8.2674925E-07   32.416  1.1227243E-02  176.548  5.1384567E-07 -141.329
                1.2217676E-02   -2.013  2.1451923E-02  -42.544  3.4615309E-06  116.310  4.4835618E-02 -178.712
                2.0010810E-06    5.384  4.1800782E-01    0.093
                9.9739575E-01   -5.147  4.8961361E-06   47.435  3.3862036E-02  140.969  9.6659565E-06 -135.808
                2.1453483E-02  -42.547  7.2084366E-02   -0.950  7.4944059E-06 -131.649  5.1356737E-02  -53.573
                1.2501488E-05   38.989  3.4331983E-02  129.539
                9.1568846E-06 -144.442  7.1503932E-01  179.919  3.3055927E-06   85.728  4.0325369E-02   -0.776
                1.0878635E-06 -126.646  8.9671005E-06 -128.974  1.6757133E-02  175.230  1.3339013E-05   90.097
                1.8223610E-02   -2.793  1.5044598E-05  -92.003
                4.7935412E-02  -40.334  9.4390679E-06  -99.575  5.9863467E-01    0.150  1.2605935E-05   93.270
                4.4833184E-02 -178.712  5.1355077E-02  -53.575  1.0964523E-05   91.118  2.7350614E-02 -174.823
                1.3766118E-05  -91.409  2.1525676E-02    4.386
                1.0246784E-05   53.878  5.4236298E-02 -179.316  5.1878935E-06  -83.674  4.9496721E-01  179.960
                1.2255083E-06   62.764  1.0198027E-05   53.482  1.8223661E-02   -2.787  1.4349301E-05  -87.620
                1.9245541E-02  178.319  1.9140440E-05   91.776
                3.1978492E-02  136.085  1.0091782E-05   90.300  6.1762277E-02   -0.984  1.3224315E-05  -87.678
                4.1800776E-01    0.093  3.4331849E-02  129.536  1.5504358E-05  -89.896  2.1525054E-02    4.385
                1.9710504E-05   91.065  1.7292348E-02 -176.347
 5.5000000E+09  2.5353203E-02  165.228  5.3781524E-06   39.564  2.7367598E-02  117.797  9.5613686E-06 -158.361
                1.7240458E-02  -56.586  9.9967992E-01   -7.594  6.6191063E-06 -145.454  4.1303059E-02  -39.138
                1.1579996E-05   57.712  2.7527050E-02  135.886
                4.6124429E-06   37.667  4.5107813E-03    8.729  2.5331467E-06  -94.749  6.5881426E-03 -176.873
                1.8631091E-06  -98.491  4.4572751E-06   38.021  7.2571662E-01  179.927  1.0593941E-05  -91.603
                5.4421928E-02 -179.392  1.2853716E-05   93.066
                2.7371561E-02  117.797  2.1509682E-06  -67.285  1.4013182E-02   -3.134  5.4805022E-06  100.503
                1.1577423E-02  177.618  2.8027353E-02  144.126  6.5040416E-06   57.208  6.0416417E-01    0.101
                8.6030658E-06   33.025  6.2389313E-02   -0.676
                1.0481910E-05 -151.123  6.5863753E-03 -176.900  3.2044040E-06   74.890  7.3086057E-03    1.475
                2.4526519E-06  -95.847  9.9436322E-06 -136.739  4.0718379E-02   -0.680  1.4983345E-05   94.299
                4.9845681E-01  179.965  1.3744498E-05  -88.300
                1.7242637E-02  -56.585  2.3260827E-06 -177.258  1.1576916E-02  177.611  1.1517159E-06  115.013
                1.2426597E-02   -1.405  1.7681317E-02  -41.213  2.1306998E-06  140.185  4.5204832E-02 -179.116
                6.8332271E-06  -63.601  4.2028604E-01    0.065
                9.9967755E-01   -7.594  6.1010494E-06   60.384  2.8031602E-02  144.131  9.0857460E-06 -130.538
                1.7678279E-02  -41.213  2.5351682E-02   -0.415  5.2044766E-06 -119.844  4.2254834E-02  -57.819
                1.1376706E-05   49.977  2.8204199E-02  126.927
                6.3240897E-06 -162.358  7.2571509E-01  179.927  4.3398797E-06   95.520  4.0717050E-02   -0.680
                1.1555256E-06 -106.089  8.2026507E-06 -130.326  1.4323712E-02  175.006  1.4001737E-05   88.388
                1.7484738E-02   -2.555  1.6502277E-05  -92.474
                4.1298828E-02  -39.139  8.6070892E-06  -82.698  6.0416255E-01    0.101  1.2474104E-05   90.265
                4.5200609E-02 -179.116  4.2252421E-02  -57.817  1.3879146E-05   85.123  2.8412030E-02 -176.478
                1.5221007E-05  -86.309  2.2063720E-02    3.016
                1.1930360E-05   40.939  5.4416367E-02 -179.390  4.8306378E-06  -94.392  4.9845465E-01  179.965
                1.8375370E-06   64.418  1.2446476E-05   43.710  1.7483559E-02   -2.548  1.7853837E-05  -90.093
                1.9093280E-02  178.537  2.0404431E-05   90.575
                2.7525411E-02  135.883  1.2122997E-05   87.175  6.2389869E-02   -0.676  1.5647082E-05  -89.065
                4.2028512E-01    0.065  2.8204189E-02  126.928  1.4308998E-05  -86.610  2.2063770E-02    3.017
                2.3007080E-05   93.770  1.7531831E-02 -177.458
 6.0000000E+09  9.0096775E-03  158.520  9.8794842E-06   30.020  2.4962225E-02  113.430  1.3452461E-05 -146.706
                1.5646887E-02  -59.543  9.9996511E-01   -9.582  9.3867180E-06  175.729  3.7398178E-02  -37.929
                1.8519597E-05   74.476  2.4891173E-02  135.827
                9.9360270E-06  -27.908  1.7804320E-03   23.422  2.7363965E-06  -65.444  5.7587841E-03 -176.356
                1.8918280E-06  118.554  1.0701227E-05   34.348  7.3822053E-01  179.926  1.8554832E-05  -86.200
                5.4614680E-02 -179.398  1.5788879E-05   94.896
                2.4970106E-02  113.427  5.8301282E-06 -102.814  1.4802562E-02   -2.431  4.8742652E-06 -173.530
                1.1992159E-02  178.131  2.5173575E-02  146.805  1.0400391E-05   98.492  6.1038848E-01    0.077
                9.1960115E-06   84.779  6.3107331E-02   -0.530
                1.1606226E-05 -120.241  5.7607113E-03 -176.310  1.1317232E-06 -145.577  7.0847145E-03    1.468
                7.7323738E-07  175.516  1.0975786E-05  -80.287  4.1165590E-02   -0.667  1.3204879E-05  121.209
                5.0234132E-01  179.965  1.4276950E-05  -93.008
                1.5646516E-02  -59.518  4.6753546E-06  -49.063  1.1991167E-02  178.113  4.5555134E-06 -154.590
                1.2663740E-02   -1.125  1.5787871E-02  -40.090  2.6825277E-06  -22.855  4.5623387E-02 -179.312
                1.1329937E-05    5.424  4.2280716E-01    0.052
                9.9996069E-01   -9.581  8.8602286E-06   39.132  2.5172557E-02  146.799  9.2819276E-06 -142.772
                1.5789473E-02  -40.117  9.0092261E-03    2.312  9.9567153E-06 -137.727  3.7673085E-02  -61.364
                1.0617827E-05   45.225  2.5101469E-02  124.799
                7.6698920E-06 -160.178  7.3820860E-01  179.926  4.8802951E-06   87.505  4.1175003E-02   -0.672
                1.6991182E-06  -96.509  7.8666515E-06 -132.534  1.0976592E-02  173.409  1.5284986E-05   91.907
                1.6555569E-02   -2.672  1.7283125E-05  -89.489
                3.7397355E-02  -37.918  1.0099124E-05  -86.128  6.1039113E-01    0.078  1.2981500E-05   89.208
                4.5618379E-02 -179.310  3.7673944E-02  -61.363  1.3365263E-05   85.604  2.9695005E-02 -177.279
                1.7240541E-05  -93.055  2.2697020E-02    2.358
                9.3583588E-06   36.565  5.4611526E-02 -179.391  6.6322206E-06  -88.614  5.0234568E-01  179.966
                1.8655090E-06   67.310  1.0141067E-05   61.001  1.6556608E-02   -2.670  1.8444867E-05  -88.411
                1.8924324E-02  178.577  2.1434002E-05   87.588
                2.4893532E-02  135.825  1.4495164E-05   94.304  6.3107199E-02   -0.526  1.7928321E-05  -82.980
                4.2280860E-01    0.051  2.5099923E-02  124.801  1.8910122E-05  -77.539  2.2695813E-02    2.356
                2.2398889E-05   97.878  1.7807722E-02 -177.983
 6.5000000E+09  1.0325123E-03  111.647  1.3693424E-05   33.775  2.3356013E-02  109.373  8.2499329E-06 -135.397
                1.4559937E-02  -62.211  9.9998828E-01  -11.356  1.0021143E-05 -167.823  3.4696210E-02  -36.677
                1.0975157E-05   70.633  2.3059612E-02  135.809
                6.0146787E-06   65.808  2.6243600E-03  162.404  4.4041283E-06 -102.266  4.6612177E-03 -175.185
                1.8312769E-06  -32.681  1.0697194E-05   -2.765  7.5290287E-01  179.921  1.2255544E-05  -91.129
                5.4817851E-02 -179.359  1.1174878E-05  100.529
                2.3363140E-02  109.393  7.1106399E-06  -36.301  1.5757793E-02   -1.989  6.2912928E-06  102.813
                1.2472606E-02  178.454  2.3387273E-02  149.285  1.1390551E-05   73.582  6.1739087E-01    0.062
                7.8610094E-06 -126.655  6.3929182E-02   -0.434
                1.4580541E-05  170.062  4.6601664E-03 -175.114  4.6426792E-06   88.090  6.8225473E-03    1.609
                1.9704105E-06  -82.857  2.0539351E-05  -90.542  4.1712065E-02   -0.692  1.1247453E-05   79.324
                5.0665852E-01  179.965  2.0012963E-05  -97.473
                1.4555277E-02  -62.208  9.6921933E-06 -130.138  1.2476212E-02  178.445  6.2765694E-06  141.878
                1.2930856E-02   -0.950  1.4565572E-02  -39.078  1.0478067E-05   63.478  4.6093123E-02 -179.441
                5.7110074E-06   60.344  4.2558950E-01    0.043
                9.9999703E-01  -11.356  7.4395952E-06   57.876  2.3380103E-02  149.292  8.4334012E-06 -113.845
                1.4570933E-02  -39.113  1.0244131E-03   46.169  7.0826720E-06 -140.917  3.4700844E-02  -64.631
                1.0644274E-05   62.786  2.3068021E-02  122.897
                9.6652159E-06 -160.787  7.5290254E-01  179.921  5.7444944E-06   80.003  4.1709059E-02   -0.696
                1.7996434E-06 -104.328  9.3940698E-06 -136.385  6.2091424E-03  167.473  1.6285248E-05   87.708
                1.5365275E-02   -2.986  1.9899783E-05  -90.925
                3.4697784E-02  -36.664  9.8286297E-06  -84.145  6.1738939E-01    0.062  1.5239626E-05   91.286
                4.6090671E-02 -179.433  3.4700772E-02  -64.629  1.6663826E-05   88.730  3.1227955E-02 -177.789
                1.9978394E-05  -90.728  2.3430585E-02    1.945
                9.6024772E-06   34.671  5.4816009E-02 -179.356  7.3851141E-06  -91.147  5.0666442E-01  179.966
                2.3797867E-06   89.887  1.1207693E-05   59.516  1.5365794E-02   -2.999  1.9878500E-05  -86.880
                1.8727483E-02  178.541  2.4994956E-05   88.793
                2.3058822E-02  135.805  1.5996303E-05   89.094  6.3926396E-02   -0.433  1.8953280E-05  -88.799
                4.2558821E-01    0.043  2.3068492E-02  122.898  1.6736519E-05  -90.417  2.3431791E-02    1.945
                2.2670046E-05   90.637  1.8116015E-02 -178.315
 7.0000000E+09  4.4037498E-03  -12.901  7.5010093E-06   15.984  2.2211372E-02  105.442  5.4639082E-06 -134.830
                1.3747569E-02  -64.747  9.9999319E-01  -13.007  1.0877942E-05  164.275  3.2659212E-02  -35.352
                8.2894426E-06   44.938  2.1664895E-02  135.812
                5.5000394E-06   36.774  8.9729188E-03  174.024  3.3642246E-06  -87.680  3.1594385E-03 -172.105
                1.1058684E-06  110.583  6.5001053E-06   16.996  7.7036186E-01  179.912  1.2206346E-05  -81.295
                5.5043904E-02 -179.294  1.4850790E-05   91.016
                2.2214754E-02  105.441  3.1366849E-06  -99.289  1.6921236E-02   -1.669  5.5524445E-06   94.044
                1.3040252E-02  178.681  2.2145609E-02  151.738  7.7678001E-06   95.737  6.2522804E-01    0.051
                8.9985743E-06  -96.859  6.4860103E-02   -0.365
                9.9672177E-06 -159.972  3.1652721E-03 -172.199  4.5618562E-06  104.232  6.4972897E-03    1.790
                1.0872977E-06  147.284  8.4746062E-06 -126.873  4.2343181E-02   -0.748  1.5380771E-05   86.231
                5.1143548E-01  179.965  1.8639380E-05  -90.118
                1.3750675E-02  -64.752  3.5295328E-06   46.597  1.3039331E-02  178.683  2.0556330E-06  166.743
                1.3235248E-02   -0.815  1.3695621E-02  -38.141  3.2329903E-06  -62.324  4.6624090E-02 -179.523
                1.0056126E-06   80.343  4.2863352E-01    0.037
                9.9998859E-01  -13.007  5.3051283E-06   41.704  2.2143924E-02  151.734  8.7872981E-06 -127.976
                1.3693612E-02  -38.151  4.4034467E-03  166.911  1.0842290E-05 -134.900  3.2537861E-02  -67.787
                8.6466749E-06   66.806  2.1573039E-02  121.120
                6.8084319E-06 -148.391  7.7036618E-01  179.912  7.2256312E-06   85.714  4.2342537E-02   -0.745
                2.0428350E-06 -102.064  7.4361711E-06 -134.768  1.9845060E-03   48.669  1.7126366E-05   91.515
                1.3800654E-02   -3.551  2.0871470E-05  -89.801
                3.2659928E-02  -35.353  1.2463886E-05  -83.898  6.2522780E-01    0.051  1.6560287E-05   88.901
                4.6622631E-02 -179.521  3.2538409E-02  -67.787  1.6339161E-05   89.713  3.3073099E-02 -178.157
                2.1846404E-05  -92.219  2.4281428E-02    1.645
                9.8628372E-06   21.544  5.5041110E-02 -179.295  6.5947249E-06  -91.982  5.1143660E-01  179.965
                1.5612257E-06   58.433  9.7374786E-06   54.960  1.3797248E-02   -3.561  2.1751721E-05  -89.255
                1.8499536E-02  178.471  2.5457254E-05   88.767
                2.1663565E-02  135.811  1.5752225E-05   90.739  6.4859003E-02   -0.364  2.0261195E-05  -86.495
                4.2863321E-01    0.037  2.1571201E-02  121.117  1.9494333E-05  -87.597  2.4282878E-02    1.644
                2.4794905E-05   87.675  1.8458120E-02 -178.544
 7.5000000E+09  7.7159618E-03  -20.629  1.2836045E-05   68.562  2.1373790E-02  101.554  1.3342146E-05 -124.268
                1.3118446E-02  -67.191  9.9997440E-01  -14.579  1.0059589E-05   38.463  3.1040568E-02  -33.951
                9.0392153E-06   13.194  2.0543263E-02  135.839
                5.0960909E-06   38.481  1.9775136E-02  176.668  3.5051278E-06  -68.283  1.0632185E-03 -151.639
                1.1309668E-06 -122.719  7.9796792E-06   99.736  7.9145232E-01  179.900  1.3767222E-05  -91.387
                5.5294753E-02 -179.200  1.4102165E-05  103.052
                2.1369239E-02  101.566  1.2614780E-05 -175.736  1.8353291E-02   -1.414  1.9979149E-06   -9.792
                1.3707911E-02  178.860  2.1256877E-02  154.203  1.6819139E-05   15.923  6.3400833E-01    0.042
                7.0228598E-06 -134.302  6.5922040E-02   -0.315
                6.7691885E-06 -140.678  1.0687706E-03 -152.677  6.1656887E-06   78.150  6.0849498E-03    2.046
                1.4395478E-06 -113.185  6.2509667E-06 -130.289  4.3125131E-02   -0.806  1.7699570E-05   93.217
                5.1667443E-01  179.965  2.0402987E-05  -96.156
                1.3115604E-02  -67.222  5.2809393E-06   14.919  1.3706782E-02  178.876  7.1121830E-06  140.568
                1.3574536E-02   -0.724  1.3036991E-02  -37.228  1.9262072E-05  172.680  4.7225103E-02 -179.589
                6.6838099E-06 -133.391  4.3195402E-01    0.033
                9.9996738E-01  -14.578  5.8238554E-06   50.266  2.1261892E-02  154.186  9.9748678E-06 -125.150
                1.3026393E-02  -37.207  7.7242799E-03  171.435  7.4535674E-06 -159.962  3.0862086E-02  -70.928
                8.8665136E-06   63.245  2.0395508E-02  119.421
                7.6853231E-06 -158.279  7.9144766E-01  179.899  7.3807887E-06   87.954  4.3121121E-02   -0.812
                2.3788776E-06 -104.145  7.5367633E-06 -130.743  1.3634022E-02    7.187  1.9072489E-05   89.896
                1.1667103E-02   -4.595  2.1306134E-05  -91.701
                3.1037439E-02  -33.953  1.1319114E-05  -75.722  6.3400384E-01    0.042  1.9045254E-05   91.016
                4.7223412E-02 -179.591  3.0861390E-02  -70.929  1.7926444E-05   86.891  3.5308600E-02 -178.444
                2.4888120E-05  -92.010  2.5270385E-02    1.416
                1.0357320E-05   21.203  5.5306745E-02 -179.209  9.2336407E-06  -90.026  5.1668365E-01  179.963
                1.6931318E-06   74.707  9.6268020E-06   49.509  1.1663290E-02   -4.606  2.3876986E-05  -90.554
                1.8250298E-02  178.381  2.7883220E-05   88.734
                2.0539909E-02  135.829  1.6620990E-05   91.412  6.5923552E-02   -0.312  1.8040052E-05  -90.957
                4.3195471E-01    0.033  2.0394365E-02  119.427  1.7707816E-05  -93.918  2.5269533E-02    1.415
                2.6479462E-05   88.783  1.8835466E-02 -178.721
 8.0000000E+09  1.0144897E-02  -25.688  3.0219201E-06   82.683  2.0784097E-02   97.656  1.3013150E-05 -142.895
                1.2621042E-02  -69.582  9.9994751E-01  -16.099  1.0411857E-05  178.168  2.9693577E-02  -32.420
                1.0243550E-05   37.098  1.9599012E-02  135.858
                8.4213894E-06   32.841  4.0684241E-02  177.850  3.5898088E-06  -66.000  2.6162511E-03  -13.427
                1.8603942E-06  -59.699  6.7095356E-06   92.937  8.1748989E-01  179.876  1.0295117E-05  -81.046
                5.5691037E-02 -179.067  1.4866679E-05  102.365
                2.0784507E-02   97.699  2.6804987E-05 -127.810  2.0138847E-02   -1.217  1.2601351E-05   60.556
                1.4504439E-02  179.004  2.0646456E-02  156.680  3.2013784E-06   52.676  6.4383560E-01    0.035
                1.4652213E-05  -69.917  6.7144979E-02   -0.273
                1.0497346E-05 -139.241  2.6197027E-03  -13.512  8.1019714E-06   84.594  5.5531744E-03    2.501
                5.0086751E-07  160.272  1.2578429E-05 -138.601  4.4116570E-02   -0.881  1.6290167E-05   96.163
                5.2244896E-01  179.960  2.3585498E-05  -90.844
                1.2624634E-02  -69.581  9.7126678E-06   84.628  1.4502642E-02  178.985  3.3976057E-06   34.269
                1.3960368E-02   -0.645  1.2505735E-02  -36.270  7.0096861E-06  -39.543  4.7905962E-02 -179.647
                8.7733105E-06   46.757  4.3556854E-01    0.029
                9.9994716E-01  -16.099  8.6616561E-06   47.649  2.0645689E-02  156.676  9.9762779E-06 -133.078
                1.2504975E-02  -36.276  1.0140295E-02  173.522  6.4194305E-06 -128.225  2.9503195E-02  -74.130
                1.2676628E-05   50.084  1.9423414E-02  117.777
                7.0389616E-06 -163.457  8.1746978E-01  179.877  7.9833899E-06   82.217  4.4133824E-02   -0.909
                2.9395193E-06  -94.890  7.8281931E-06 -125.455  3.6887095E-02    3.158  1.9098033E-05   87.754
                8.5927252E-03   -6.989  2.2921533E-05  -91.146
                2.9691225E-02  -32.421  1.0744458E-05  -66.199  6.4383446E-01    0.035  1.7731713E-05   89.748
                4.7905414E-02 -179.648  2.9503647E-02  -74.130  1.8892475E-05   86.416  3.8048945E-02 -178.679
                2.4590453E-05  -94.064  2.6422341E-02    1.230
                9.5607399E-06   19.020  5.5683238E-02 -179.071  9.4582218E-06  -94.014  5.2244408E-01  179.960
                2.4355017E-06   78.258  1.0652544E-05   51.952  8.5944930E-03   -6.997  2.5166795E-05  -88.902
                1.7983024E-02  178.294  3.1275146E-05   88.901
                1.9596978E-02  135.854  1.4771631E-05   98.403  6.7145486E-02   -0.270  2.3361388E-05  -88.754
                4.3556625E-01    0.029  1.9422507E-02  117.780  2.0784987E-05  -94.495  2.6421423E-02    1.229
                3.0399540E-05   90.561  1.9247995E-02 -178.861
 8.5000000E+09  1.2061585E-02  -31.475  5.5867724E-06   14.174  2.0437282E-02   93.791  1.1448921E-05 -152.078
                1.2241863E-02  -71.949  9.9993594E-01  -17.597  2.2259601E-06  157.675  2.8497268E-02  -30.685
                7.8209794E-06   38.212  1.8770066E-02  135.882
                3.0437238E-06   13.156  9.4186513E-02  178.582  4.6405046E-06  -65.202  9.2462887E-03   -4.962
                2.7507109E-06 -103.219  1.2891073E-06   62.832  8.4939982E-01  179.835  1.1024384E-05  -91.283
                5.6522366E-02 -178.840  1.0044459E-05   89.920
                2.0432709E-02   93.788  4.3531470E-06  -76.224  2.2405076E-02   -1.062  1.1004578E-05   66.535
                1.5465814E-02  179.107  2.0281726E-02  159.171  6.7687807E-06   77.852  6.5487569E-01    0.029
                1.1498000E-05 -157.594  6.8556267E-02   -0.234
                1.8407588E-05 -128.922  9.2450096E-03   -4.948  2.1726688E-07    1.166  4.7815354E-03    3.266
                2.3296223E-06 -103.174  7.2279828E-06 -119.095  4.5540544E-02   -1.049  2.0201345E-05   93.892
                5.2872632E-01  179.958  2.2385688E-05  -87.753
                1.2251350E-02  -71.969  1.4387333E-06   54.682  1.5464575E-02  179.107  4.9159605E-07  153.325
                1.4395550E-02   -0.594  1.2115084E-02  -35.418  3.0945730E-06  -13.574  4.8687809E-02 -179.697
                8.4376242E-06  160.770  4.3948174E-01    0.026
                9.9992919E-01  -17.597  6.8836398E-06   64.768  2.0285492E-02  159.159  1.1080670E-05 -123.075
                1.2108028E-02  -35.389  1.2060179E-02  176.223  6.5956646E-06 -121.492  2.8329803E-02  -77.513
                1.2989702E-05   56.676  1.8581349E-02  116.149
                7.3853971E-06 -156.740  8.4940169E-01  179.835  8.7099901E-06   85.415  4.5539419E-02   -1.056
                3.4507154E-06  -95.317  8.6035341E-06 -127.388  9.5946540E-02    1.538  2.0510490E-05   87.705
                3.7867191E-03  -18.479  2.3975654E-05  -92.369
                2.8497257E-02  -30.679  9.9713677E-06  -85.742  6.5487371E-01    0.028  1.9213487E-05   87.669
                4.8686200E-02 -179.696  2.8328993E-02  -77.516  1.9773805E-05   87.071  4.1456884E-02 -178.883
                2.6124810E-05  -93.843  2.7773365E-02    1.068
                1.1612887E-05   25.317  5.6520268E-02 -178.841  1.1030532E-05  -95.806  5.2872792E-01  179.958
                2.8391313E-06   93.299  1.1668815E-05   48.777  3.7890171E-03  -18.534  2.7848353E-05  -92.791
                1.7733214E-02  178.188  3.2390830E-05   90.972
                1.8771339E-02  135.867  8.6952149E-06   88.137  6.8555907E-02   -0.234  2.3149910E-05  -86.096
                4.3947834E-01    0.026  1.8579115E-02  116.152  2.8460840E-05  -94.366  2.7773579E-02    1.067
                3.3634452E-05   90.856  1.9698279E-02 -178.982
 9.0000000E+09  1.4660913E-02  -46.675  8.6204173E-06  161.354  2.0773610E-02   90.657  1.2588427E-05 -164.357
                1.2152024E-02  -74.094  9.9990219E-01  -19.217  7.9434630E-06  148.324  2.6917571E-02  -28.278
                1.3102891E-05   40.693  1.7849180E-02  135.843
                1.0881784E-05  -53.714  5.4534572E-01  179.109  5.6860000E-06  102.089  4.1420977E-02   -2.485
                3.3336710E-06  -44.079  3.9837352E-06   56.908  7.2118835E-01  179.635  5.4786836E-06  -28.215
                6.2677047E-02 -178.013  2.8847930E-06 -118.334
                2.0772995E-02   90.622  7.5927663E-06 -122.723  2.5474696E-02   -0.963  4.7469579E-06  119.155
                1.6673545E-02  179.185  2.0536729E-02  160.664  8.9788770E-06  -92.352  6.6742502E-01    0.022
                1.2127113E-05 -148.479  7.0165266E-02   -0.214
                1.0702832E-05 -162.764  4.1427931E-02   -2.497  1.1583776E-05  105.729  2.5590952E-03    8.487
                1.5148235E-06  -86.902  1.3108177E-05  165.102  3.9051881E-02   -1.421  1.2692251E-05   99.429
                5.3527374E-01  179.949  2.6220952E-05  -93.108