! S-parameter export from POSTFEKO
! Filename: circular_3wg_10modes_1mm_fine_resolution
! Creation date: 2020-01-15 08:09:58
! 
# Hz S MA R    5.0000000E+01 
  4.0000000E+09     3.2260554E-01     5.2979150E-04     1.1543295E-05     9.0140408E+01     6.0336654E-02     1.7999928E+02     1.5314233E-05    -9.0111200E+01   
                   3.4167810E-02    -1.0104892E-03     1.3859620E-05     8.9559939E+01     2.2191996E-02     1.7999769E+02     1.5210575E-05    -9.7430460E+01   
                   1.6147133E-02    -2.1051964E-03     1.5477679E-05     8.6246068E+01     7.9707180E-01    -9.7450431E-05     1.6026212E-05    -9.4765555E+01   
                   1.3312264E-01     7.9963051E-04     1.2284836E-05     8.8696146E+01     7.8297818E-02    -1.7999821E+02     1.1388807E-05    -5.2475113E+01   
                   5.0978579E-02     3.3954734E-03     4.8426385E-06     1.2486278E+02     3.3955444E-02    -1.7999648E+02     3.0059717E-06     6.4080125E+01   
                   1.2219535E-05     8.5445831E+01     1.0352484E-02     1.0274061E-02     4.3734019E-06    -7.3409639E+01     8.9091202E-03     1.7999379E+02   
                   1.4399503E-06     9.3252347E+01     6.6070618E-03    -1.5016568E-03     9.3676890E-07     9.0263613E+01     4.9215211E-03     1.7999953E+02   
                   2.5143150E-06    -8.8864669E+01     3.9800008E-03    -2.2816129E-02     1.0333191E-05     1.1652932E+02     5.8511130E-01    -1.7999993E+02   
                   8.9253068E-06    -9.3752082E+01     9.0434871E-02     1.7999886E+02     8.8202075E-06     8.7914391E+01     3.9461061E-02    -2.0060116E-04   
                   7.4817274E-06    -9.1912969E+01     2.2270216E-02     1.7999868E+02     5.6192874E-06     9.1163627E+01     1.3550391E-02     1.9688618E-03   
                   6.0342525E-02    -1.7999931E+02     1.5152053E-06    -5.8160081E+01     1.8877245E-02    -1.4801662E-03     3.5915272E-06     9.1329904E+01   
                   1.2350902E-02     1.7999699E+02     5.5930842E-06    -8.6594760E+01     8.7437794E-03    -7.5316351E-04     4.8912574E-06     7.4530200E+01   
                   6.9051663E-03    -1.7999936E+02     4.9552888E-06    -8.8338819E+01     5.1445032E-02     1.7999925E+02     6.3130162E-06     8.4978921E+01   
                   4.4123234E-01    -1.4918444E-04     6.0052056E-06    -9.1352763E+01     1.0073549E-01     6.2251934E-04     5.1562231E-06     1.2958089E+02   
                   4.2549817E-02    -1.7999847E+02     1.8987791E-06    -1.7988136E+01     2.3518234E-02     2.2234944E-03     3.0888070E-06     5.7008528E+01   
                   1.4111412E-05    -9.1893375E+01     8.9087861E-03    -1.7999193E+02     5.6206576E-06     8.6619794E+01     7.6660942E-03    -2.1254529E-04   
                   2.2673279E-06    -8.1911012E+01     5.9127498E-03    -1.7999060E+02     4.0589010E-07     1.6817167E+02     4.5630473E-03    -1.5275737E-02   
                   2.2913372E-06     8.4161807E+01     3.8450970E-03     1.7998821E+02     1.0053222E-05    -9.8020617E+01     5.8264459E-02     2.7409686E-04   
                   9.6867645E-06     9.2992976E+01     3.3443023E-01    -1.7999988E+02     9.8690043E-06    -8.8666502E+01     9.4971917E-02     1.7999898E+02   
                   8.3311304E-06     8.9053708E+01     3.5309133E-02     7.2838581E-04     5.9883248E-06    -8.8744105E+01     1.8184453E-02    -1.7999709E+02   
                   3.4169191E-02     6.7886673E-04     2.7492494E-06     5.6191096E+01     1.2350959E-02     1.7999990E+02     3.2488041E-06    -9.4643934E+01   
                   8.7372785E-03    -9.6129881E-04     1.9278542E-06     9.0083653E+01     6.4773136E-03    -1.7999914E+02     1.4680373E-06    -1.0794542E+02   
                   5.4907082E-03    -2.2852837E-04     1.1362215E-06     1.2925049E+02     2.7033987E-02    -2.7064059E-03     2.9422604E-06    -9.4784157E+01   
                   5.2729332E-02     1.7999957E+02     4.2965975E-06     9.3540793E+01     2.5323909E-01    -1.9163685E-04     3.6189276E-06    -5.5436300E+01   
                   9.1438930E-02     4.9342358E-04     2.4985616E-06     9.3999029E+01     3.2029460E-02    -1.7999888E+02     4.8158152E-06    -9.2868209E+01   
                   1.4620072E-05     9.1714915E+01     6.6057434E-03     1.5893122E-02     6.1243669E-06    -9.7692459E+01     5.9123967E-03    -1.7999522E+02   
                   3.6455294E-06     8.9850611E+01     4.6714650E-03    -3.3832201E-03     4.3319822E-07     9.2713890E+01     3.7453478E-03     1.7998978E+02   
                   2.9172051E-06    -8.6329542E+01     3.3695976E-03     1.6003914E-02     1.2238606E-05     8.2540529E+01     2.7489750E-02    -1.7999820E+02   
                   9.7140034E-06    -8.8591151E+01     5.2064966E-02     2.6842170E-05     1.0494611E-05     9.2227883E+01     1.8994395E-01     1.7999983E+02   
                   8.7614802E-06    -9.1051542E+01     8.2775633E-02     1.7999938E+02     6.5334143E-06     9.0616911E+01     2.6133073E-02     6.9667595E-04   
                   2.2194974E-02     1.7999939E+02     2.0028758E-06     1.0319791E+02     8.7437469E-03     1.2998031E-04     3.5144995E-07     4.5468322E+01   
                   6.4779742E-03    -1.7999688E+02     5.1092095E-07     3.3641007E+00     5.2700321E-03    -4.7610145E-03     1.7988164E-06    -1.0280315E+02   
                   4.8170314E-03     1.7999969E+02     1.2363085E-06     9.3525617E+01     1.6995684E-02     1.7999545E+02     2.5689596E-06     8.3429003E+01   
                   2.4688404E-02    -1.4706371E-03     2.0219246E-06    -9.5622627E+01     4.4205441E-02     1.7999952E+02     1.0216512E-06     7.2237731E+01   
                   1.4217875E-01    -1.7289776E-04     4.3988021E-06    -7.7241335E+01     7.4988306E-02     2.7990304E-04     4.0931433E-06     7.6556370E+01   
                   1.6852612E-05    -9.1674362E+01     4.9191419E-03     1.7997855E+02     6.9048537E-06     9.0680363E+01     4.5576483E-03     2.2037001E-02   
                   2.4240972E-06    -8.4498854E+01     3.7424907E-03     1.7998765E+02     9.2960318E-07     9.2733378E+01     3.0047213E-03     2.1690717E-02   
                   2.3401353E-06     8.7332370E+01     3.0792591E-03     1.7998113E+02     1.1805679E-05    -9.0890870E+01     1.6329078E-02     1.7537685E-03   
                   9.9901732E-06     9.1085537E+01     2.4846385E-02    -1.7999954E+02     1.0718704E-05    -8.9564302E+01     3.8574739E-02    -2.0309275E-03   
                   9.4240706E-06     9.0499009E+01     1.0476873E-01    -1.7999964E+02     6.5456975E-06    -8.8826264E+01     6.5795314E-02     1.7999974E+02   
                   1.6152154E-02     9.7217388E-04     1.6701692E-06    -1.1019591E+02     6.9065044E-03     1.7999402E+02     7.9436343E-06     8.8633507E+01   
                   5.4915848E-03     3.0531369E-03     5.1863009E-06    -9.2036683E+01     4.8167163E-03    -1.7999835E+02     1.1173808E-06     1.2073372E+02   
                   6.5817369E-03     1.8328489E-03     1.5197174E-06    -7.4612183E+01     1.2093700E-02    -3.4414756E-03     1.4232467E-06    -6.0415043E+01   
                   1.5060955E-02    -1.7999747E+02     4.2316320E-06    -9.7233563E+01     2.1520468E-02    -1.9281068E-04     1.7977086E-07     4.0297762E+01   
                   3.1795316E-02    -1.7999985E+02     2.6272947E-06     7.8761109E+01     7.7423430E-02     1.1261974E-04     2.9999928E-06    -1.0131824E+02   
                   2.0900984E-05     9.8499795E+01     3.9746776E-03    -1.2397883E-02     4.5357170E-06    -8.3456562E+01     3.8384300E-03     1.7999697E+02   
                   3.4271099E-06     8.4687697E+01     3.3690211E-03    -1.9646017E-02     8.9394631E-07    -8.1180873E+01     3.0743755E-03    -1.7998182E+02   
                   2.5050311E-06    -8.7816159E+01     4.0847533E-03     6.8035161E-03     1.5192576E-05     9.0756192E+01     1.1104754E-02     1.7999961E+02   
                   9.9531231E-06    -9.0842445E+01     1.5213202E-02    -4.5729200E-03     1.0368377E-05     8.9394153E+01     1.9171208E-02    -1.7999822E+02   
                   9.0470638E-06    -8.8841307E+01     2.5960375E-02    -1.4294084E-03     6.0446671E-06     8.8825223E+01     5.5838198E-02    -1.7999997E+02   
                   7.9707068E-01    -1.6716725E-05     9.0114769E-06     7.7438857E+01     5.1443078E-02     1.7999930E+02     1.0321411E-05    -9.5333332E+01   
                   2.7033381E-02    -1.2546700E-03     1.0344985E-05     8.6094909E+01     1.6993134E-02     1.7999873E+02     1.0616923E-05    -9.3353051E+01   
                   1.2090954E-02     2.8450556E-04     1.0611346E-05     8.8093140E+01     4.0829838E-01    -1.7999973E+02     9.9881683E-06    -9.5793480E+01   
                   7.7004203E-02     1.3196347E-03     7.4532716E-06     9.1113788E+01     4.9931591E-02    -1.7999778E+02     7.8990261E-06    -6.6031608E+01   
                   3.3920401E-02     3.6789628E-03     3.1574601E-06     9.0813247E+01     2.3216789E-02    -1.7999598E+02     8.0282922E-07     1.3187747E+02   
                   1.1727902E-05    -9.5177693E+01     5.8511557E-01    -1.7999990E+02     6.2980904E-06     9.7469343E+01     5.8264107E-02     4.7739204E-04   
                   4.4772483E-06    -9.2357779E+01     2.7487385E-02    -1.7999976E+02     2.7096448E-06     9.1114335E+01     1.6328498E-02    -5.8246379E-04   
                   1.0081358E-06    -9.1958875E+01     1.1099490E-02     1.7999811E+02     9.2935826E-06    -7.3406523E+01     4.6199623E-02    -1.7999974E+02   
                   9.6069629E-06     8.8163350E+01     4.0443502E-02    -4.2086956E-03     8.8688917E-06    -9.1534502E+01     3.1470449E-02     1.7999676E+02   
                   7.7554791E-06     8.8968698E+01     2.3604362E-02    -5.4679309E-03     6.7893454E-06    -8.9284763E+01     1.7348388E-02     1.7999749E+02   
                   1.3312125E-01     9.0253105E-04     6.3934758E-06    -8.4459612E+01     4.4123144E-01    -1.2138589E-04     8.8104818E-06     9.4789372E+01   
                   5.2728327E-02     1.7999937E+02     9.7722800E-06    -9.0624328E+01     2.4687115E-02    -8.6173437E-04     9.8424967E-06     8.6728364E+01   
                   1.5059325E-02     1.7999997E+02     1.0867129E-05    -9.2136755E+01     7.7003699E-02     2.1162259E-03     8.5820234E-06     9.5773618E+01   
                   3.8804595E-02    -1.7999699E+02     8.8149211E-06    -9.0997142E+01     3.1139128E-02     4.2979789E-03     5.3357470E-06     1.1159650E+02   
                   2.3986057E-02    -1.7999404E+02     4.2654113E-06    -9.3774035E+01     1.7981839E-02     6.3574554E-03     5.2817964E-06     9.3418312E+01   
                   1.0199766E-05     8.4841913E+01     9.0430450E-02     1.7999990E+02     5.0496629E-06    -8.9154759E+01     3.3443011E-01     1.7999987E+02   
                   3.3345000E-06     9.1148539E+01     5.2065561E-02     2.9189642E-05     1.5603109E-06    -9.3407177E+01     2.4847591E-02    -1.7999863E+02   
                   4.1869051E-07    -6.9787969E+01     1.5216520E-02    -1.0696417E-04     8.2606928E-06     7.3987235E+01     4.0440740E-02    -2.2934620E-03   
                   8.3979661E-06    -8.2682832E+01     3.7808438E-02     1.7999947E+02     9.2166233E-06     8.8545821E+01     3.1189078E-02    -3.6857376E-03   
                   8.2094471E-06    -8.8139755E+01     2.4564149E-02    -1.7999974E+02     4.8708115E-06     8.9885478E+01     1.8855621E-02     2.7026905E-04   
                   7.8296104E-02    -1.7999783E+02     6.2424543E-06     9.8266536E+01     1.0073546E-01     7.3807245E-04     9.4372754E-06    -8.6029643E+01   
                   2.5323904E-01    -1.7613787E-04     9.9677095E-06     9.1401046E+01     4.4204286E-02     1.7999926E+02     1.0899874E-05    -9.2004961E+01   
                   2.1518492E-02     1.2215576E-04     9.4003508E-06     9.0662044E+01     4.9930048E-02    -1.7999840E+02     8.8037722E-06    -8.3305860E+01   
                   3.1139999E-02     5.6254769E-03     8.8589059E-06     8.6727178E+01     2.7227293E-02    -1.7999423E+02     7.9539626E-06    -8.3977053E+01   
                   2.2341874E-02     6.5841670E-03     4.8301530E-06     9.5929664E+01     1.7609817E-02    -1.7999165E+02     2.1829089E-06    -7.8924498E+01   
                   6.5680702E-06    -9.4902691E+01     3.9459843E-02     1.9809689E-03     3.7333464E-06     7.4808486E+01     9.4971512E-02    -1.7999988E+02   
                   2.2989694E-06    -8.3766599E+01     1.8994691E-01     1.7999984E+02     1.4158796E-06     8.4466848E+01     3.8578198E-02     6.9868565E-04   
                   3.3193335E-07     7.0627041E+01     1.9174999E-02    -1.7999884E+02     6.0898491E-06    -1.1272440E+02     3.1468080E-02     1.7999582E+02   
                   6.1836071E-06     9.4925418E+01     3.1190828E-02     1.0662341E-03     7.0984860E-06    -9.0573238E+01     2.7097129E-02    -1.7999860E+02   
                   6.2418619E-06     9.0757799E+01     2.2259805E-02    -1.0758566E-03     6.3309181E-06    -8.9875511E+01     1.7775555E-02    -1.7999920E+02   
                   5.0977970E-02     4.1116658E-03     7.9177948E-06    -9.3760901E+01     4.2548837E-02    -1.7999853E+02     7.7561962E-06     9.1028316E+01   
                   9.1438566E-02     5.6927653E-04     7.9689017E-06    -8.9112222E+01     1.4217894E-01    -1.9006857E-04     7.5626071E-06     8.7647800E+01   
                   3.1794141E-02     1.7999984E+02     8.5301304E-06    -8.9178306E+01     3.3920073E-02     1.1782126E-03     7.2122987E-06     8.6156314E+01   
                   2.3986516E-02    -1.7999365E+02     7.3778521E-06    -8.8181593E+01     2.2342278E-02     6.8497206E-03     6.5221549E-06     9.5787413E+01   
                   1.9070468E-02    -1.7999340E+02     4.8597911E-06    -9.0252750E+01     1.5771693E-02     9.0132504E-03     2.5249631E-06     8.1270718E+01   
                   3.9991257E-06     1.0199169E+02     2.2268458E-02    -1.7999859E+02     3.1767814E-06    -1.0454028E+02     3.5309968E-02    -6.4973372E-04   
                   1.2591114E-06     1.1449423E+02     8.2769634E-02    -1.7999955E+02     1.0231011E-06    -8.6336325E+01     1.0477451E-01    -1.7999970E+02   
                   1.0654762E-07     3.2972778E+01     2.5966502E-02    -1.9874427E-04     3.4206646E-06     1.0336113E+02     2.3604219E-02    -3.6897445E-03   
                   4.4116897E-06    -9.1377416E+01     2.4568426E-02     1.7999963E+02     5.0360492E-06     9.4226647E+01     2.2260709E-02     3.3249619E-03   
                   5.5532734E-06    -9.0732944E+01     1.9136032E-02     1.7999889E+02     3.5946600E-06     9.3405409E+01     1.5777388E-02    -1.0488280E-02   
                   3.3953183E-02    -1.7999577E+02     5.0686585E-06     9.0191605E+01     2.3518623E-02     2.0886281E-03     6.9183139E-06    -8.7847888E+01   
                   3.2028804E-02    -1.7999858E+02     7.1925299E-06     9.0633938E+01     7.4987640E-02     2.3874854E-04     7.0929497E-06    -9.1235922E+01   
                   7.7423769E-02    -1.2398861E-04     6.3728973E-06     9.2007218E+01     2.3216312E-02    -1.7999746E+02     5.3756199E-06    -9.6114840E+01   
                   1.7980077E-02     7.3014171E-03     7.9619149E-06     8.9921335E+01     1.7609549E-02    -1.7999115E+02     6.9526270E-06    -9.6334983E+01   
                   1.5773606E-02     9.2928594E-03     2.9489546E-06     8.7567427E+01     1.3095037E-02    -1.7999024E+02     7.5684122E-06    -1.0342021E+02   
                   1.7884269E-06    -4.8100856E+01     1.3545216E-02    -9.4844362E-03     2.2841940E-06     7.5329693E+01     1.8184686E-02     1.7999872E+02   
                   1.1552464E-06    -1.0132302E+02     2.6129875E-02     3.9614538E-05     7.7495630E-07     9.6534783E+01     6.5793824E-02     1.7999945E+02   
                   2.0058609E-07    -1.5303034E+02     5.5839325E-02    -1.7999972E+02     6.2526943E-06    -8.3981377E+01     1.7351961E-02    -1.7999877E+02   
                   2.9154358E-06     7.3907844E+01     1.8861125E-02     2.1228946E-03     4.3496480E-06    -8.7486722E+01     1.7779578E-02     1.7999862E+02   
                   3.0641529E-06     9.0411219E+01     1.5778241E-02    -1.7172372E-03     4.9385481E-06    -9.2214860E+01     1.3604493E-02     1.7999179E+02   
  4.1000000E+09     5.5390936E-01    -1.4438132E-04     1.4957200E-05     9.8122564E+01     7.9154736E-02     1.7999899E+02     1.4018626E-05    -8.4313994E+01   
                   4.4172593E-02    -1.0960385E-03     1.6903051E-05     9.3716193E+01     2.8511487E-02     1.7999819E+02     2.1367754E-05    -8.6765657E+01   
                   2.0659015E-02     1.8540894E-04     2.2814822E-05     9.3216217E+01     6.3843277E-01    -2.0827376E-04     1.6780801E-05    -9.2344864E+01   
                   1.6292904E-01     8.5787299E-04     1.0539168E-05     8.0426470E+01     9.7364678E-02    -1.7999789E+02     1.0433635E-05    -8.2570236E+01   
                   6.3849023E-02     3.2482685E-03     9.2904201E-06     9.3708436E+01     4.2727037E-02    -1.7999665E+02     1.4350498E-05    -7.9208688E+01   
                   1.3995039E-05     8.5033611E+01     9.3433550E-03     5.0209304E-03     3.8316249E-06    -9.3275182E+01     8.4637993E-03    -1.7999688E+02   
                   1.9743840E-06     8.5229128E+01     6.3435266E-03     1.2041759E-02     1.2690110E-06     9.5346602E+01     4.7502754E-03    -1.7999988E+02   
                   2.8309600E-06    -9.3276670E+01     3.8572524E-03     1.6461550E-02     7.8347774E-06     8.1792620E+01     5.8820324E-01     1.7999998E+02   
                   7.6952101E-06    -9.4919974E+01     8.9855606E-02     1.7999984E+02     8.9022649E-06     8.6375358E+01     3.9002675E-02     2.6084490E-03   
                   7.1893477E-06    -9.5101808E+01     2.1944578E-02    -1.7999865E+02     5.0690094E-06     8.9710282E+01     1.3313783E-02    -3.8087482E-03   
                   7.9156747E-02     1.7999938E+02     3.7222354E-06    -9.1291286E+01     2.0360227E-02    -1.5571202E-03     5.2597076E-06     9.2834998E+01   
                   1.3137723E-02     1.7999717E+02     5.7927518E-06    -9.1454186E+01     9.2402768E-03    -9.8327104E-04     5.4629114E-06     8.8218021E+01   
                   7.2597691E-03     1.7999729E+02     4.6662814E-06    -9.0977998E+01     4.2343405E-02     1.7999985E+02     7.6908865E-06     9.2667889E+01   
                   4.3994614E-01    -1.7978984E-04     4.8251765E-06    -8.0282772E+01     1.0234811E-01     6.0358774E-04     2.8553270E-06     9.3662305E+01   
                   4.3589231E-02    -1.7999877E+02     4.3683700E-06    -1.1188303E+02     2.4216868E-02     2.5693463E-03     3.5865619E-06     8.3113108E+01   
                   2.2557859E-05    -8.9763762E+01     8.4642756E-03    -1.7999480E+02     4.8844664E-06     9.5032811E+01     7.4678998E-03     4.2007379E-04   
                   3.1577955E-06    -8.5608928E+01     5.7980779E-03     1.7999117E+02     5.1293263E-07     4.8875206E+01     4.4835511E-03     1.2041031E-02   
                   2.6831406E-06     8.7560976E+01     3.7875958E-03    -1.7999840E+02     9.6992277E-06    -8.8213843E+01     5.8972565E-02     8.5589103E-04   
                   8.7346071E-06     8.8632963E+01     3.3532763E-01    -1.7999990E+02     9.7515431E-06    -8.9297805E+01     9.4848439E-02    -1.7999946E+02   
                   8.3787087E-06     9.1009996E+01     3.5182038E-02    -3.0136932E-04     6.1813448E-06    -9.0966986E+01     1.8089530E-02    -1.7999838E+02   
                   4.4177828E-02    -2.2330651E-03     3.2074934E-06     2.9988943E+01     1.3136177E-02     1.7999790E+02     2.6860687E-06    -7.9162677E+01   
                   9.1540567E-03     5.8059673E-04     1.9816772E-06     9.8128451E+01     6.7416591E-03     1.7999953E+02     5.2789783E-06    -7.5615319E+01   
                   5.6785884E-03     1.3962712E-03     3.5135383E-06     9.7745724E+01     2.2342423E-02    -2.2861282E-03     3.7844577E-06    -9.7147561E+01   
                   5.1636810E-02     1.7999902E+02     2.6926508E-06     9.4665081E+01     2.5280440E-01    -1.8410183E-04     4.6619901E-06    -9.0426738E+01   
                   9.2057095E-02     5.0776722E-04     3.4236530E-06     9.5089740E+01     3.2414462E-02    -1.7999869E+02     1.6753213E-06    -1.2822361E+02   
                   1.8923932E-05     9.1230203E+01     6.3409981E-03     1.0968749E-02     5.7182445E-06    -8.4698569E+01     5.7948562E-03    -1.7999981E+02   
                   3.5030047E-06     8.5016671E+01     4.6010389E-03     3.6447265E-03     1.1219952E-07     1.6785717E+02     3.6982514E-03     1.7998444E+02   
                   3.0160750E-06    -8.9733121E+01     3.3349999E-03     7.3082373E-03     9.5427410E-06     9.0777457E+01     2.7882789E-02    -1.7999874E+02   
                   1.0068157E-05    -9.2330556E+01     5.2352366E-02     2.7621625E-04     1.0843471E-05     8.9833621E+01     1.9029725E-01     1.7999978E+02   
                   9.2372731E-06    -9.1315717E+01     8.2753800E-02     1.7999919E+02     6.7655477E-06     9.1417302E+01     2.6087891E-02    -3.4170432E-04   
                   2.8515464E-02     1.7999861E+02     3.2634481E-06    -1.6388585E+02     9.2408655E-03    -2.2845213E-03     1.2968687E-06    -1.4974976E+02   
                   6.7409372E-03    -1.7999828E+02     1.3253825E-06     7.5074433E+01     5.4353890E-03     9.3531815E-04     1.2668054E-06     8.1525130E+01   
                   4.9375284E-03    -1.7999906E+02     8.2933135E-07     1.5850468E+02     1.4072080E-02     1.7999783E+02     4.6659359E-06     1.1672518E+02   
                   2.3980097E-02    -8.2669533E-05     8.7147565E-07    -3.9113747E+01     4.3774009E-02     1.7999931E+02     9.5886476E-07     1.6792461E+02   
                   1.4198657E-01    -9.7801110E-05     2.4568312E-06    -8.6199934E+01     7.5272875E-02     1.9217536E-04     2.5224510E-06     6.7189467E+01   
                   2.1944160E-05    -8.6291940E+01     4.7478339E-03     1.7998654E+02     6.8169887E-06     9.0980025E+01     4.4802081E-03     1.3175441E-02   
                   2.4921844E-06    -9.1564287E+01     3.6984071E-03    -1.7999798E+02     6.3294322E-07     8.9166160E+01     2.9745552E-03    -1.0439565E-02   
                   2.9522483E-06     8.8748776E+01     3.0539019E-03     1.7999031E+02     1.0935847E-05    -9.1238364E+01     1.6584152E-02    -5.5319610E-03   
                   1.0971331E-05     8.8636663E+01     2.5020269E-02     1.7999509E+02     9.8177409E-06    -9.2130673E+01     3.8710488E-02    -9.2448998E-04   
                   8.5641636E-06     9.2551424E+01     1.0492404E-01    -1.7999994E+02     6.0267800E-06    -8.8385562E+01     6.5800374E-02    -1.7999959E+02   
                   2.0663433E-02     1.0109875E-03     3.9721947E-06    -7.9648840E+01     7.2633950E-03     1.7999624E+02     3.6097830E-06     8.1716533E+01   
                   5.6794263E-03     4.5974492E-03     5.1851633E-06    -8.6733350E+01     4.9362976E-03    -1.7999984E+02     5.4641058E-06     8.3532403E+01   
                   6.6701762E-03    -6.1858882E-06     4.8940937E-06    -9.0667116E+01     1.0025772E-02    -1.6468996E-03     2.0713005E-06    -2.9653064E+01   
                   1.4549702E-02    -1.7999993E+02     8.6396756E-07     9.0418014E+01     2.1199611E-02     7.4312138E-04     6.4499342E-07    -1.5950746E+02   
                   3.1589453E-02    -1.7999958E+02     2.0346742E-06     1.0667047E+02     7.7321976E-02    -1.8052006E-05     1.9701084E-07    -6.1249336E+01   
                   2.3453463E-05     9.0260404E+01     3.8530579E-03    -1.0562340E-02     6.3486076E-06    -1.0061638E+02     3.7809793E-03     1.7999876E+02   
                   3.6556207E-06     9.0397012E+01     3.3365656E-03     1.8961695E-02     7.5609144E-07    -1.0412561E+02     3.0589604E-03    -1.7998280E+02   
                   1.6594476E-06    -9.4342813E+01     4.0792807E-03     1.2365436E-02     1.0690201E-05     8.9311677E+01     1.1286690E-02    -1.7999424E+02   
                   9.5654421E-06    -8.5571186E+01     1.5334103E-02    -3.9606766E-03     1.0214216E-05     8.7833294E+01     1.9260274E-02    -1.7999914E+02   
                   9.2828314E-06    -9.1253616E+01     2.6029943E-02     1.6591579E-03     6.3686379E-06     8.7370245E+01     5.5908175E-02     1.7999959E+02   
                   6.3843232E-01    -1.5456405E-04     6.9291772E-06     9.1795087E+01     4.2342518E-02     1.7999938E+02     6.1630521E-06    -8.8133835E+01   
                   2.2340813E-02    -1.3396629E-03     8.1166686E-06     9.2846739E+01     1.4069032E-02     1.7999877E+02     1.0330981E-05    -9.0746704E+01   
                   1.0023104E-02     1.5081064E-04     1.1170047E-05     8.8763847E+01     6.9228672E-01    -1.7999989E+02     7.7657825E-06    -9.3768367E+01   
                   6.4828958E-02     1.3676666E-03     5.4505989E-06     8.6394945E+01     4.1788856E-02    -1.7999788E+02     5.5524324E-06    -9.4188155E+01   
                   2.8314044E-02     2.9746713E-03     4.6150264E-06     9.2107367E+01     1.9346582E-02    -1.7999634E+02     6.4796986E-06    -7.3217035E+01   
                   1.4208594E-05    -9.4202733E+01     5.8820273E-01    -1.7999997E+02     6.5942653E-06     9.0101346E+01     5.8970729E-02     4.4913809E-04   
                   4.8883351E-06    -9.1039084E+01     2.7884928E-02    -1.7999872E+02     3.2026064E-06     9.2973783E+01     1.6584002E-02     8.6128095E-05   
                   1.4178202E-06    -9.7807053E+01     1.1284184E-02     1.7999927E+02     7.1142332E-06    -9.0631477E+01     4.7655542E-02    -1.7999853E+02   
                   9.4714065E-06     8.8832431E+01     4.1465860E-02    -9.6374585E-05     9.7212876E-06    -9.4530031E+01     3.2181475E-02    -1.7999983E+02   
                   7.3762615E-06     8.6729545E+01     2.4102678E-02    -1.7511282E-03     6.6478245E-06    -9.0710163E+01     1.7689150E-02     1.7999371E+02   
                   1.6293037E-01     1.2931287E-03     7.8741499E-06    -9.6676809E+01     4.3994544E-01    -1.4358181E-04     9.2049966E-06     9.0634346E+01   
                   5.1635885E-02     1.7999912E+02     9.8276564E-06    -9.1746662E+01     2.3978822E-02    -8.5533860E-04     9.3255840E-06     8.9955777E+01   
                   1.4549385E-02     1.7999970E+02     9.9959720E-06    -8.9514459E+01     6.4829937E-02     1.0539451E-03     8.2623884E-06     9.5180495E+01   
                   3.5434699E-02    -1.7999693E+02     9.7909011E-06    -8.3119761E+01     2.8967144E-02     4.7467093E-03     7.4916301E-06     8.1117476E+01   
                   2.2515595E-02    -1.7999329E+02     5.1616616E-06    -9.1222602E+01     1.6978451E-02     7.0386491E-03     3.9174485E-06     5.9553679E+01   
                   1.8742257E-05     9.4558280E+01     8.9854893E-02    -1.7999965E+02     5.4896780E-06    -8.9771123E+01     3.3533017E-01    -1.8000000E+02   
                   3.7384651E-06     8.9344193E+01     5.2353207E-02    -8.8437647E-04     2.2114633E-06    -9.5521801E+01     2.5019264E-02    -1.7999958E+02   
                   2.4078067E-07     1.7197944E+02     1.5337665E-02     2.0235332E-04     7.7290932E-06     9.1972557E+01     4.1466030E-02    -2.2088389E-03   
                   7.7353405E-06    -9.2734822E+01     3.8488966E-02    -1.7999966E+02     8.4594620E-06     9.2071725E+01     3.1659816E-02    -1.3437063E-03   
                   8.4450753E-06    -8.8090141E+01     2.4889508E-02     1.7999428E+02     5.4076120E-06     9.0045567E+01     1.9085620E-02     3.9966700E-03   
                   9.7363821E-02    -1.7999840E+02     8.2073880E-06     8.7182673E+01     1.0234749E-01     6.5658381E-04     8.8420829E-06    -9.1729679E+01   
                   2.5280461E-01    -2.1633237E-04     1.0108486E-05     9.0305340E+01     4.3772895E-02     1.7999936E+02     9.0803385E-06    -9.1814360E+01   
                   2.1197809E-02    -3.0027943E-04     8.3996260E-06     9.0580567E+01     4.1788138E-02    -1.7999787E+02     9.4832739E-06    -8.6368578E+01   
                   2.8967368E-02     4.8740464E-03     7.7599298E-06     9.3142454E+01     2.5827851E-02    -1.7999514E+02     6.2271798E-06    -8.5881188E+01   
                   2.1394589E-02     6.8139537E-03     4.7235064E-06     7.1775715E+01     1.6963459E-02    -1.7999241E+02     3.8071950E-06    -1.0544895E+02   
                   9.2538938E-06    -8.4648858E+01     3.9001677E-02    -5.5310805E-04     4.6644941E-06     8.9821584E+01     9.4847902E-02     1.7999963E+02   
                   3.0881872E-06    -8.5163578E+01     1.9029876E-01    -1.8000000E+02     1.3135328E-06     8.9395531E+01     3.8710547E-02    -9.9922112E-04   
                   2.0653653E-08    -2.1438871E+01     1.9261078E-02    -1.7999867E+02     5.9266928E-06    -8.8675021E+01     3.2181843E-02    -1.7999980E+02   
                   6.9945982E-06     8.6463044E+01     3.1658552E-02    -1.6838301E-03     7.4546860E-06    -8.6760602E+01     2.7419410E-02     1.7999842E+02   
                   5.9700213E-06     9.2156499E+01     2.2488649E-02    -7.1018263E-03     6.3248285E-06    -9.1558395E+01     1.7935954E-02    -1.7999994E+02   
                   6.3846804E-02     2.4560203E-03     6.8200098E-06    -8.1889261E+01     4.3588481E-02    -1.7999840E+02     8.0218565E-06     8.9059775E+01   
                   9.2056815E-02     4.7969323E-04     8.1806345E-06    -9.3564670E+01     1.4198637E-01    -1.6838143E-04     9.2233169E-06     9.3135648E+01   
                   3.1588936E-02     1.7999994E+02     9.3040854E-06    -8.9030648E+01     2.8313097E-02     3.4281440E-03     6.5622284E-06     8.4293203E+01   
                   2.2516462E-02    -1.7999386E+02     9.1595787E-06    -9.7047419E+01     2.1395126E-02     6.9275018E-03     6.2255796E-06     9.2572910E+01   