! S-parameter export from POSTFEKO
! Filename: circular_3wg_5modes
! Creation date: 2020-01-07 09:12:39
! 
# Hz S MA R    5.0000000E+01 
  4.0000000E+09     1.8258230E-01     2.6088170E-04     6.3066557E-06     9.3691705E+01     3.2255208E-02     1.7999509E+02     1.1263239E-05    -9.3643532E+01   
                   1.9270959E-02    -1.3447473E-03     4.2569071E-01     7.4502974E-05     1.5067356E-06    -5.2057535E+01     3.7111504E-02    -6.7670837E-04   
                   3.6987673E-06    -3.6880993E+01     2.4278813E-02     1.7999918E+02   
                   2.9753216E-06    -3.0878415E+01     7.7359130E-03    -2.5374801E-02     2.5048807E-06    -6.3236167E+01     6.6796421E-03     1.7999272E+02   
                   1.3049336E-06     7.7719829E+01     5.0844262E-06     8.4733153E+01     2.4018625E-02     1.7999938E+02     5.6025371E-07     5.3104660E+01   
                   1.6768945E-03     1.7995761E+02     1.1074131E-07    -2.7751268E+01   
                   3.2254368E-02     1.7999947E+02     2.1028938E-06    -5.1814195E+01     1.1762824E-02    -2.8170685E-03     4.2063170E-06     1.0484151E+02   
                   8.1472533E-03    -1.7999832E+02     1.6536576E-02     1.7999953E+02     9.4130739E-07     7.5126087E+01     2.5630140E-03    -1.7666639E-03   
                   2.4803292E-07    -1.4326759E+02     1.3968594E-03    -1.0546165E-05   
                   9.4853943E-06    -8.1530383E+01     6.6760279E-03     1.7999640E+02     3.5965445E-06     8.4380760E+01     5.8634811E-03     1.1900249E-02   
                   2.4303613E-06    -9.9054921E+01     4.6835207E-06    -9.4929835E+01     1.6105718E-03     2.1818123E-03     3.9213841E-07    -1.0992185E+02   
                   6.3759988E-04    -1.7996252E+02     3.4421744E-07     6.5716371E+01   
                   1.9271239E-02    -3.6676667E-03     2.9607419E-06     9.3864149E+01     8.1469644E-03    -1.7999858E+02     2.7985794E-06    -9.4570292E+01   
                   6.0823409E-03    -4.8072429E-04     9.0010051E-03    -2.2330475E-03     2.5808126E-07     1.5357013E+02     4.8374661E-04    -1.0234668E-02   
                   6.1585771E-07     1.3702660E+02     4.3931881E-04     1.7999955E+02   
                   4.2568823E-01     1.3377617E-05     2.5770364E-06     9.5368411E+01     1.6536313E-02     1.7999902E+02     4.6401384E-06    -8.9610310E+01   
                   9.0001634E-03    -2.0505189E-04     3.1292018E-01     1.7999981E+02     1.1880697E-06    -4.5695310E+01     4.8447064E-02    -6.1212793E-04   
                   1.5617578E-06    -7.2539777E+01     3.4668832E-02     1.7999954E+02   
                   1.7341431E-06     5.0362469E+01     2.4018679E-02    -1.7999992E+02     2.6881751E-07     8.1868637E+01     1.6102818E-03    -1.4783575E-03   
                   4.1198876E-07    -9.1761196E+01     2.7765883E-06     9.4635758E+01     2.2820968E-02    -1.7999976E+02     3.2995777E-07     7.3306662E+01   
                   2.2278395E-02    -2.3912614E-03     1.6209554E-06    -4.7167481E+01   
                   3.7112549E-02    -1.5076584E-04     2.7594638E-07     1.5030382E+02     2.5632079E-03    -6.9699013E-04     4.9891951E-07    -9.6003895E+01   
                   4.8338339E-04     2.9304166E-03     4.8447691E-02     1.4961634E-03     1.5035663E-06     5.8917818E+01     2.4792716E-02     1.7999965E+02   
                   9.2478886E-07    -1.6887141E+02     2.1340202E-02    -1.6653279E-03   
                   2.7152064E-06     7.8728295E+01     1.6757384E-03    -1.7998338E+02     2.3650338E-07    -8.9788382E+01     6.3731372E-04    -1.7998584E+02   
                   1.0823681E-07     6.8584590E+01     4.4049496E-06     1.1400903E+02     2.2277325E-02    -1.9837059E-03     5.4658558E-07    -2.4128141E+01   
                   2.2806699E-02    -1.7999930E+02     1.6557662E-07     1.6782039E+02   
                   2.4277049E-02    -1.7999970E+02     5.1721304E-07    -1.2972263E+02     1.3968862E-03     1.3076247E-03     2.1040364E-07    -1.7251561E+02   
                   4.3922843E-04    -1.7999989E+02     3.4666195E-02    -1.7999712E+02     5.0410710E-07    -9.4448386E+01     2.1340387E-02     4.5859765E-04   
                   1.8533648E-06     5.4817034E+01     1.9674356E-02     1.7999988E+02   
  4.5000000E+09     7.4207722E-01    -1.2920227E+02     1.2276898E-05     4.8834239E+01     4.2131476E-02     1.2500615E+02     1.3352483E-05    -1.4228821E+02   
                   2.4507701E-02    -5.2824837E+01     1.0724319E+00    -4.4190298E+01     3.4816536E-06    -1.7982300E+02     6.3948495E-02    -8.1668407E+01   
                   3.5822499E-06    -2.0824407E+01     4.3148517E-02     9.5197272E+01   
                   1.1426754E-05     4.5045464E+01     6.3693099E-03     1.0269698E+01     4.1082469E-06    -1.0691332E+02     6.1129986E-03    -1.7461222E+02   
                   3.5472973E-07     1.2879742E+02     1.9836843E-05     4.9379343E+01     2.6828834E-02     1.7567166E+02     3.4123936E-07     1.0330278E+00   
                   2.5211904E-03    -1.4967982E+02     9.8370485E-07    -1.7097653E+02   
                   4.2131863E-02     1.2500627E+02     2.8262206E-06    -1.2921877E+02     1.2563348E-02    -9.4897202E+00     5.6785042E-06     7.2243675E+01   
                   8.5815224E-03     1.7215040E+02     6.4359963E-02     1.3581232E+02     1.5206796E-06     1.6686790E+02     5.3667378E-03     4.5028443E+01   
                   4.5421619E-06     1.3998089E+01     2.6788751E-03    -7.4258925E+01   
                   1.5357199E-05    -1.4808953E+02     6.1120838E-03    -1.7458195E+02     5.0609327E-06     8.6062828E+01     5.6349025E-03     2.9619020E+00   
                   2.7450464E-06    -9.7939249E+01     2.1234394E-05    -1.3447247E+02     1.8972606E-03    -3.2409397E+01     2.2327238E-06    -1.7824849E+02   
                   8.3928733E-04     1.2980616E+02     5.2107780E-07    -1.8805798E+00   
                   2.4510600E-02    -5.2826646E+01     3.2713203E-06     1.1232838E+02     8.5824082E-03     1.7214773E+02     2.4548839E-06    -8.3931557E+01   
                   6.3178136E-03    -6.0266974E+00     3.6424737E-02    -4.4193060E+01     2.6937969E-06     1.6342762E+02     2.1490039E-03    -9.0340798E+01   
                   1.3654080E-06     4.2283585E+01     1.4607774E-03     9.2208951E+01   
                   1.0724234E+00    -4.4190323E+01     1.5365676E-05     4.7536468E+01     6.4358011E-02     1.3580967E+02     2.0360989E-05    -1.3486397E+02   
                   3.6417663E-02    -4.4190169E+01     9.9999919E-01     1.6195708E+00     3.9762082E-06    -1.0156175E+02     1.1800048E-01    -4.4190019E+01   
                   2.8388209E-06    -7.5587885E+00     8.0137773E-02     1.3580962E+02   
                   2.3456427E-06     1.5077628E+02     2.6830561E-02     1.7567850E+02     8.2746203E-07     1.4435500E+01     1.8984620E-03    -3.2582636E+01   
                   9.1920769E-07    -1.7197556E+02     3.4781910E-06    -1.5349268E+02     1.9939963E-02     1.6961446E+02     8.2886970E-07     7.6247327E+01   
                   2.0852116E-02    -6.2320833E+00     1.2589153E-06    -1.0327093E+02   
                   6.3947517E-02    -8.1667823E+01     7.6105673E-07     6.2062669E+00     5.3677646E-03     4.5022511E+01     1.3352135E-06    -1.6603486E+02   
                   2.1486676E-03    -9.0309057E+01     1.1799956E-01    -4.4190175E+01     2.3595566E-07    -3.9364578E+00     2.9760095E-02    -1.6647164E+02   
                   9.0837159E-07    -1.0263153E+02     2.4629950E-02     1.1067741E+01   
                   7.9051994E-07    -1.0223318E+02     2.5185823E-03    -1.4962916E+02     4.8814810E-07     1.7218208E+02     8.3578806E-04     1.2965784E+02   
                   5.7695492E-07     1.0740332E+01     8.0378140E-07     1.3992154E+02     2.0850867E-02    -6.2321541E+00     8.8768671E-07    -1.1684256E+02   
                   2.2097358E-02     1.7630425E+02     1.0842123E-06     7.3549694E+01   
                   4.3147778E-02     9.5197585E+01     7.4419740E-07     1.6179137E+02     2.6793461E-03    -7.4251666E+01     7.8208461E-07    -5.2234043E+00   
                   1.4602163E-03     9.2182681E+01     8.0136883E-02     1.3580991E+02     1.6224329E-06    -6.7247808E+01     2.4630314E-02     1.1067721E+01   
                   1.8818927E-06     1.0753208E+02     2.1844278E-02    -1.7154657E+02   
  5.0000000E+09     6.3093891E-02     1.3379348E+02     1.0070605E-05     4.0702636E+01     3.0503377E-02     1.2447746E+02     1.1742834E-05    -1.3787958E+02   
                   1.7621136E-02    -5.1824063E+01     9.9800364E-01    -6.4912446E+01     1.5375294E-06     6.9431803E+01     4.7548974E-02    -9.8073836E+01   
                   3.8383978E-06    -9.6905609E+01     3.2145131E-02     7.6955638E+01   
                   8.4092991E-06     4.6805539E+01     5.8004841E-03     7.5150353E+00     3.2031318E-06    -1.1091608E+02     6.0874456E-03    -1.7640279E+02   
                   1.8826070E-06     4.9629822E+01     8.9758172E-06    -5.8834593E+00     2.9833087E-02     1.7880839E+02     6.5076504E-07    -4.9682235E+01   
                   3.1359219E-03    -1.7331769E+02     3.5731784E-07     1.1435074E+02   
                   3.0504741E-02     1.2448053E+02     4.9868669E-06    -7.6365340E+01     1.1521562E-02    -4.9205708E+00     4.6169330E-06     7.8197327E+01   
                   7.9377009E-03     1.7588929E+02     3.2320134E-02     8.2061946E+01     1.0775434E-06     1.0447882E+02     5.9060348E-03     1.1329440E+01   
                   7.6284390E-08     1.8687986E+01     7.5176486E-04    -1.0610999E+02   
                   1.0042068E-05    -1.3541541E+02     6.0849976E-03    -1.7640832E+02     4.5855433E-06     9.2351900E+01     5.7182717E-03     1.9591958E+00   
                   2.2562137E-06    -8.9158311E+01     1.0165949E-05     1.6377018E+02     1.3263133E-03    -1.3040542E+01     7.6112043E-07     1.2542573E+02   
                   2.9567774E-04     1.4343676E+02     3.2693003E-07    -4.2207732E+01   
                   1.7624026E-02    -5.1822241E+01     2.1800642E-06     1.6182429E+02     7.9363472E-03     1.7588520E+02     3.5840631E-06    -9.0119092E+01   
                   5.9222124E-03    -3.1808197E+00     1.8607297E-02    -1.0124352E+02     1.2301300E-06     1.4494556E+02     1.1651897E-03    -1.4706790E+02   
                   6.2894729E-07    -8.1605750E+01     6.6195483E-04     3.6124067E+01   
                   9.9800636E-01    -6.4912416E+01     1.0483849E-05    -1.6811812E+01     3.2320347E-02     8.2061233E+01     1.1764778E-05     1.6501554E+02   
                   1.8605180E-02    -1.0123959E+02     6.3087333E-02    -8.3617856E+01     1.1581142E-06    -1.1204190E+02     4.9218290E-02    -5.9868354E+01   
                   1.9478206E-06     4.4560839E+01     3.2963662E-02     1.2481291E+02   
                   3.1713253E-07     7.2271824E+01     2.9833162E-02     1.7881016E+02     4.2647481E-07     7.7436878E+00     1.3256620E-03    -1.3064625E+01   
                   3.5395209E-07     1.3541465E+02     4.5754872E-07     1.1592417E+02     1.6952926E-02     1.7495054E+02     5.2596718E-07     1.0992621E+02   
                   1.9806351E-02    -2.6868209E+00     1.1824167E-06    -9.1892997E+01   
                   4.7548210E-02    -9.8073350E+01     1.2725603E-06    -6.7301841E+01     5.9058932E-03     1.1329904E+01     1.2450692E-06     1.2488295E+02   
                   1.1650655E-03    -1.4707177E+02     4.9216614E-02    -5.9869071E+01     1.4259648E-06     6.9225266E+01     3.1288744E-02    -1.7570808E+02   
                   9.2171161E-07    -4.4239267E+01     2.5454980E-02     3.5363746E+00   
                   2.8780323E-06    -1.8751881E+01     3.1356691E-03    -1.7331311E+02     3.5254057E-07     1.1325997E+02     2.9574341E-04     1.4362721E+02   
                   2.3177535E-07    -3.3500379E+01     2.7852476E-06     3.2364376E+01     1.9808436E-02    -2.6891024E+00     1.3317046E-06    -8.6019158E+01   
                   2.1805015E-02     1.7847652E+02     1.7734926E-06     8.3972495E+01   
                   3.2145499E-02     7.6955431E+01     8.2297951E-07    -2.3713990E+01     7.5205160E-04    -1.0609019E+02     5.3707231E-07    -2.4157686E+00   
                   6.6185436E-04     3.6131052E+01     3.2963089E-02     1.2481502E+02     1.3213363E-06    -1.0010091E+02     2.5454968E-02     3.5358201E+00   
                   2.6523395E-06     9.1337477E+01     2.2267817E-02    -1.7727245E+02   
  5.5000000E+09     1.1709542E-02     1.4181106E+02     8.5010607E-06     1.9485485E+01     2.6389169E-02     1.1705910E+02     1.2738434E-05    -1.4848376E+02   
                   1.5162995E-02    -5.7830346E+01     9.9993503E-01    -8.9008820E+01     2.6358736E-06     1.1924601E+02     4.1968240E-02    -1.1867003E+02   
                   2.9370632E-06    -8.6124049E+01     2.8431441E-02     5.4837154E+01   
                   1.0469648E-05     3.7868296E+01     3.8681758E-03     1.0050373E+01     4.9283664E-06    -9.8133436E+01     5.4778132E-03    -1.7648042E+02   
                   1.3055774E-06     8.3103934E+01     9.3192503E-06    -2.7155365E+01     3.5304433E-02     1.7959501E+02     5.8006705E-07    -1.6071976E+02   
                   3.5613840E-03    -1.7798275E+02     2.2597563E-07     7.6609050E+01   
                   2.6388107E-02     1.1705354E+02     3.3173130E-06    -7.6028303E+01     1.2093322E-02    -3.3431481E+00     3.8632709E-06     8.3391358E+01   
                   8.2082123E-03     1.7718599E+02     2.6700963E-02     6.3961506E+01     3.2730768E-07    -1.3028270E+02     6.2693778E-03     5.7745650E+00   
                   2.2865847E-06    -1.3287344E+02     3.6089695E-04    -1.0117284E+02   
                   8.6387785E-06    -1.5651570E+02     5.4773121E-03    -1.7648520E+02     5.0089536E-06     8.9560161E+01     5.5380999E-03     1.7412777E+00   
                   2.7756025E-06    -9.8643346E+01     1.0454346E-05     1.4754808E+02     1.5734746E-03    -3.7624003E+00     1.6541091E-06     1.7198384E+02   
                   2.6757347E-04     1.6985959E+02     7.0162274E-07    -2.3827159E+01   
                   1.5165832E-02    -5.7812450E+01     1.6878811E-06     5.4930830E+01     8.2088750E-03     1.7718019E+02     4.0686624E-06    -8.3078017E+01   
                   6.0457364E-03    -2.2017956E+00     1.5340973E-02    -1.2104264E+02     1.5524093E-06     1.2291949E+02     1.0080052E-03    -1.6175184E+02   
                   2.2296121E-06    -1.2891417E+02     5.1444338E-04     1.9256907E+01   
                   9.9993035E-01    -8.9008647E+01     7.2797069E-06    -4.3552980E+01     2.6699533E-02     6.3959651E+01     8.9995999E-06     1.5041734E+02   
                   1.5337912E-02    -1.2103584E+02     1.1712577E-02    -1.3982537E+02     1.4320107E-06    -1.1422257E+02     4.1812921E-02    -6.0975987E+01   
                   1.0941639E-06    -1.0581615E+01     2.8257510E-02     1.2558438E+02   
                   2.7554888E-06     1.3619963E+02     3.5305264E-02     1.7959587E+02     1.4832863E-07    -1.1813510E+01     1.5724312E-03    -3.7871303E+00   
                   2.2290103E-07     1.1173633E+02     1.3627629E-06    -1.6398680E+02     1.3759038E-02     1.7412974E+02     5.3036347E-07    -3.1497901E+01   
                   1.8905752E-02    -2.6469837E+00     1.2799582E-06    -8.9808154E+01   
                   4.1967807E-02    -1.1866736E+02     1.2284058E-06    -4.8911685E+01     6.2694084E-03     5.7812662E+00     1.2461920E-06     1.4220172E+02   
                   1.0082501E-03    -1.6179436E+02     4.1811964E-02    -6.0977473E+01     4.8821405E-07     1.2306265E+02     3.2488125E-02    -1.7690434E+02   
                   2.8282345E-06    -7.4822230E+01     2.6040412E-02     2.5966196E+00   
                   1.0515622E-06     3.7033261E+01     3.5596514E-03    -1.7800197E+02     2.0097432E-07     8.6700667E+01     2.6582444E-04     1.6934898E+02   
                   2.4972356E-07    -3.8868714E+01     1.6615669E-06     8.9024857E+01     1.8906519E-02    -2.6475852E+00     1.9329697E-06    -1.1477208E+02   
                   2.1661790E-02     1.7856152E+02     1.9631008E-06     9.2078278E+01   
                   2.8429699E-02     5.4834357E+01     1.7867035E-06     1.0257770E+02     3.6101309E-04    -1.0118321E+02     6.1164644E-07    -1.1518516E+02   
                   5.1374174E-04     1.9216908E+01     2.8257062E-02     1.2558520E+02     6.4374662E-07    -1.5172221E+02     2.6040002E-02     2.5980182E+00   
                   1.1196276E-06     8.7666627E+01     2.2521148E-02    -1.7795643E+02   
  6.0000000E+09     6.3181877E-03     1.7021116E+02     6.7914555E-06     2.8075305E+01     2.3804030E-02     1.1188728E+02     1.1390601E-05    -1.5307925E+02   
                   1.3628641E-02    -6.1617739E+01     9.9999328E-01    -1.0937153E+02     7.1915803E-06     1.0607988E+02     3.8315376E-02    -1.3584871E+02   
                   1.7688412E-05     1.6463246E+02     2.6011536E-02     3.6228100E+01   
                   9.0139334E-06     1.7294826E+01     1.2246185E-03     3.3533362E+01     4.0798609E-06    -8.7225329E+01     4.6707620E-03    -1.7594481E+02   
                   2.3416889E-06     9.6330559E+01     9.5046534E-06    -1.7045246E+01     4.2928294E-02    -1.7995015E+02     1.0781781E-06    -1.7438076E+02   
                   4.1257113E-03     1.7913034E+02     1.9596728E-06     1.1124424E+02   
                   2.3810500E-02     1.1187748E+02     5.3718822E-06    -9.4303572E+01     1.2825676E-02    -2.5472867E+00     5.3093977E-06     9.0727411E+01   
                   8.5506801E-03     1.7782801E+02     2.3921747E-02     4.8517171E+01     3.6274719E-06     1.7800379E+02     6.8377074E-03     2.8800142E+00   
                   8.0398946E-06    -1.6165116E+02     1.6974744E-04    -6.4374895E+01   
                   1.0399493E-05    -1.3590195E+02     4.6707237E-03    -1.7592915E+02     6.2170873E-06     9.4138429E+01     5.3171132E-03     1.7546616E+00   
                   2.9944613E-06    -9.0953788E+01     1.0328709E-05     9.6955997E+01     1.9782825E-03     1.6929295E+00     1.1095805E-06     1.4170983E+02   
                   3.0117928E-04    -1.7048641E+02     1.6278421E-06     1.0494783E+02   
                   1.3625692E-02    -6.1601630E+01     1.4456872E-06     1.2294749E+02     8.5511275E-03     1.7783511E+02     3.4799391E-06    -1.1928737E+02   
                   6.2009856E-03    -1.7306543E+00     1.3712158E-02    -1.3790943E+02     3.2634540E-06     1.2593776E+02     9.6160001E-04    -1.7148941E+02   
                   6.2448875E-06    -1.7119669E+02     4.4200749E-04     6.0758066E+00   
                   9.9997956E-01    -1.0937138E+02     7.9369654E-06    -5.4519756E+01     2.3925531E-02     4.8528467E+01     1.0969977E-05     1.2537573E+02   
                   1.3708120E-02    -1.3789620E+02     6.3139195E-03     1.5100327E+02     2.0257893E-06    -1.3758205E+02     3.8077565E-02    -6.3576977E+01   
                   1.6636519E-06    -6.5169706E+01     2.5850174E-02     1.2444325E+02   
                   2.2040165E-06     1.5210200E+02     4.2931890E-02    -1.7993985E+02     5.1979532E-08    -1.3072160E+02     1.9754372E-03     1.4225556E+00   
                   1.2055963E-07     1.0424975E+02     2.3132485E-06    -1.5440250E+02     9.1213306E-03     1.7084671E+02     2.1537914E-06     1.0279718E+02   
                   1.7696427E-02    -2.8861878E+00     1.1390299E-06    -1.1495220E+02   
                   3.8315936E-02    -1.3584640E+02     1.0063255E-06    -4.8884071E+01     6.8375614E-03     2.8862267E+00     7.1620232E-07     9.0302654E+01   
                   9.6117727E-04    -1.7153609E+02     3.8076518E-02    -6.3576477E+01     1.0803354E-06     7.0310251E+01     3.4066583E-02    -1.7754457E+02   
                   1.3492810E-06    -8.9529437E+01     2.6811655E-02     2.0966449E+00   
                   1.4254623E-06    -8.2930538E+01     4.1314205E-03     1.7908960E+02     6.6852111E-08     1.1120720E+02     3.0468110E-04    -1.7087846E+02   
                   2.1306460E-07    -1.0033529E+02     2.7852225E-06     5.3357947E+01     1.7697927E-02    -2.8850789E+00     1.9749555E-06    -7.5396644E+01   
                   2.1461978E-02     1.7853418E+02     1.8846545E-06     9.3827135E+01   
                   2.6010092E-02     3.6232956E+01     6.9523532E-07     1.5848652E+01     1.6864679E-04    -6.4199794E+01     2.0377553E-07     5.3922202E+01   
                   4.4274167E-04     6.2098352E+00     2.5849095E-02     1.2444565E+02     2.3802188E-06    -9.2396800E+01     2.6812590E-02     2.0962312E+00   
                   1.7546305E-06     6.4273198E+01     2.2863014E-02    -1.7831392E+02   
  6.5000000E+09     4.7353882E-03     1.1766612E+02     8.9038386E-06     7.4465058E+00     2.2068243E-02     1.0766151E+02     1.3648550E-05    -1.6171646E+02   
                   1.2606984E-02    -6.4514134E+01     9.9998822E-01    -1.2787237E+02     1.2326369E-05     8.9673029E+00     3.5649729E-02    -1.5131073E+02   
                   1.9874005E-05     6.7895657E+01     2.4252450E-02     1.9371937E+01   
                   9.3877568E-06     3.4638299E+01     3.1777142E-03     1.6697238E+02     4.5322315E-06    -1.0124641E+02     3.5943032E-03    -1.7450307E+02   
                   2.2994425E-06     7.7553423E+01     8.5500544E-06    -7.0450538E+01     5.3897908E-02    -1.7964697E+02     2.0335394E-06     8.2690736E+01   
                   4.9086733E-03     1.7721994E+02     1.8636033E-06    -8.1274586E+00   
                   2.2073142E-02     1.0765875E+02     6.3987855E-06    -8.5314127E+01     1.3723007E-02    -2.0485455E+00     8.4334537E-06     9.9240577E+01   
                   8.9590680E-03     1.7822342E+02     2.2177187E-02     3.4495834E+01     1.1517818E-05    -4.2162433E+01     7.5988824E-03     1.1538099E+00   
                   8.5287276E-06     1.0344819E+00     2.3621043E-04    -4.1691232E+00   
                   1.4980803E-05    -1.3140685E+02     3.5920828E-03    -1.7448168E+02     7.8696082E-06     7.8239780E+01     5.0439097E-03     1.9010759E+00   
                   3.5933596E-06    -9.7075583E+01     1.2372158E-05     9.7425629E+01     2.5773356E-03     4.2884019E+00     6.9054028E-07     1.1737055E+02   
                   3.8953539E-04    -1.5957124E+02     1.2348707E-06    -7.9083193E+01   
                   1.2606515E-02    -6.4510332E+01     1.9737535E-06     1.2294461E+02     8.9602587E-03     1.7823062E+02     2.0852196E-06    -7.6126612E+01   
                   6.3795837E-03    -1.4315410E+00     1.2666409E-02    -1.5323927E+02     1.0359526E-05    -9.9801923E+01     9.5645847E-04    -1.7856524E+02   
                   7.1773307E-06    -2.3436894E+01     3.9710313E-04    -4.6592538E+00   
                   9.9998881E-01    -1.2787246E+02     5.6772729E-06    -7.9539221E+01     2.2173544E-02     3.4504836E+01     1.0977589E-05     1.0858147E+02   
                   1.2662043E-02    -1.5325333E+02     4.7312753E-03     1.6661096E+02     1.0400030E-06    -5.2998684E+01     3.5502379E-02    -6.6702559E+01   
                   1.4013502E-06     4.8500829E+01     2.4139116E-02     1.2270426E+02   
                   6.7669264E-07     8.3477844E+01     5.3899156E-02    -1.7964517E+02     4.3418210E-07     1.0676232E+02     2.5848187E-03     4.2561615E+00   
                   1.4771592E-07     8.5490618E+01     1.8695245E-06    -1.2613873E+02     2.4353253E-03     1.4080033E+02     1.4670414E-06     1.1870147E+02   
                   1.6095069E-02    -3.3344202E+00     1.4067587E-06    -6.6890352E+01   
                   3.5647394E-02    -1.5130570E+02     1.1336379E-06    -1.6864248E+02     7.5995999E-03     1.1436216E+00     6.7711414E-07     6.2643809E+01   
                   9.5683019E-04    -1.7844147E+02     3.5500972E-02    -6.6701968E+01     1.3304732E-06    -6.3396900E+01     3.6007362E-02    -1.7798580E+02   
                   1.0865580E-06    -5.2169792E+01     2.7731151E-02     1.7545614E+00   
                   2.5555547E-06    -8.1705852E+01     4.9062385E-03     1.7715908E+02     3.9991233E-07     7.6528350E+01     3.8095631E-04    -1.5905913E+02   
                   1.6160361E-07    -1.5762605E+02     8.1634847E-07     3.8475377E+01     1.6093708E-02    -3.3360731E+00     1.7786486E-06    -8.9824088E+01   
                   2.1227679E-02     1.7846188E+02     1.7114474E-06     6.8380649E+01   
                   2.4251389E-02     1.9374597E+01     8.7246747E-07     1.0154424E+02     2.3553911E-04    -3.9270605E+00     6.5381155E-07    -5.7066297E+01   
                   3.9755914E-04    -4.6430797E+00     2.4138326E-02     1.2270331E+02     2.8432083E-06    -4.9102341E+01     2.7730694E-02     1.7543144E+00   
                   2.1665048E-06     8.5747339E+01     2.3257558E-02    -1.7855813E+02   
  7.0000000E+09     8.7787156E-03     4.9810036E+01     7.8597302E-06     2.6850459E+01     2.0877847E-02     1.0383443E+02     9.5102311E-06    -1.5014302E+02   
                   1.1904276E-02    -6.7064705E+01     9.9995947E-01    -1.4523667E+02     1.1712226E-05     3.3492275E+01     3.3556009E-02    -1.6567529E+02   
                   4.3548650E-06    -4.1167273E+00     2.2875282E-02     3.5764667E+00   
                   6.5471902E-06     3.2778591E+01     9.5768876E-03     1.7531201E+02     5.4470608E-06    -9.3707159E+01     2.1200060E-03    -1.6994658E+02   
                   2.3407880E-06     1.0643233E+02     1.1432220E-05    -5.5919028E+01     7.0369333E-02    -1.7949117E+02     1.9273550E-06    -6.3079423E+01   
                   6.0155516E-03     1.7600881E+02     6.4262125E-07    -1.7140214E+02   
                   2.0876250E-02     1.0384531E+02     6.1007606E-06    -9.2670263E+01     1.4817956E-02    -1.6922298E+00     7.0831406E-06     9.0328906E+01   
                   9.4405780E-03     1.7850544E+02     2.0948708E-02     2.1389094E+01     8.3576218E-06     2.5773205E+01     8.5989648E-03     6.3997812E-02   
                   6.1093984E-06    -1.6035982E+01     4.3168110E-04     1.0891623E+01   
                   1.3564931E-05    -1.5685448E+02     2.1192730E-03    -1.6993549E+02     8.3919896E-06     9.2945564E+01     4.7123999E-03     2.1429024E+00   
                   3.9573643E-06    -9.0642267E+01     7.0738266E-06     8.4768951E+01     3.5147204E-03     5.4106809E+00     9.7559936E-07    -1.6375776E+01   
                   4.8201844E-04    -1.5382150E+02     1.2997049E-06     1.4212748E+02   
                   1.1905912E-02    -6.7070911E+01     2.0498557E-06     9.6612533E+01     9.4408866E-03     1.7850650E+02     4.3507185E-06    -9.1410586E+01   
                   6.5859237E-03    -1.2354863E+00     1.1910497E-02    -1.6766180E+02     9.2399341E-06     4.1925200E+00     9.8371147E-04     1.7692103E+02   
                   1.0885004E-05    -3.9241362E+01     3.6341204E-04    -1.4062157E+01   
                   9.9996100E-01    -1.4523680E+02     8.0886111E-06    -8.9405383E+01     2.0948942E-02     2.1389376E+01     9.7686161E-06     9.4931006E+01   
                   1.1912316E-02    -1.6767278E+02     8.7751633E-03    -1.6027857E+02     1.5209996E-06     1.5804996E+02     3.3450861E-02    -7.0026232E+01   
                   2.4899842E-06     8.3200010E+01     2.2740735E-02     1.2081900E+02   
                   1.9860654E-06     6.3991332E+01     7.0375656E-02    -1.7948654E+02     6.9575846E-07     1.0100796E+02     3.5087634E-03     5.4039946E+00   
                   2.7105928E-07    -3.8349764E+01     2.2440142E-06    -1.7263084E+02     9.9486880E-03     9.6004759E+00     1.2224966E-06     9.1528854E+01   
                   1.3911361E-02    -4.1014267E+00     1.7484919E-06    -9.3989688E+01   
                   3.3554412E-02    -1.6567899E+02     7.2487383E-07    -9.6016053E+01     8.6021515E-03     7.6348080E-02     4.7532484E-07     6.1403055E+01   
                   9.8129212E-04     1.7670872E+02     3.3450165E-02    -7.0025327E+01     8.8055821E-07     9.9192531E+01     3.8379887E-02    -1.7832373E+02   
                   1.3885566E-06    -7.9724700E+01     2.8807482E-02     1.4935983E+00   
                   6.2500751E-07    -1.8521664E+00     6.0131349E-03     1.7599599E+02     3.7171331E-07     5.9699771E+01     4.7813735E-04    -1.5298264E+02   
                   3.6480015E-07    -9.5173266E+01     3.9307684E-07     1.3963672E+02     1.3910144E-02    -4.0912465E+00     2.4328771E-06    -9.0476057E+01   
                   2.0964599E-02     1.7835741E+02     1.8369892E-06     8.5403415E+01   
                   2.2874947E-02     3.5730152E+00     9.5718541E-08     1.3057532E+02     4.3084198E-04     1.0959638E+01     9.1667862E-07    -7.0479799E+01   
                   3.6347713E-04    -1.4051820E+01     2.2740211E-02     1.2081580E+02     1.8012046E-06    -8.5619168E+01     2.8807821E-02     1.4922883E+00   
                   2.9256988E-06     9.3122650E+01     2.3695609E-02    -1.7874221E+02   
  7.5000000E+09     1.5426002E-02     1.8096488E+01     7.0136999E-06     2.3022986E+01     2.0061714E-02     1.0013270E+02     1.0774095E-05    -1.4648974E+02   
                   1.1407230E-02    -6.9569675E+01     9.9989094E-01    -1.6183378E+02     7.6966024E-06     6.2716892E+01     3.1829885E-02    -1.7927997E+02   
                   1.1308694E-05    -6.3170582E+01     2.1747726E-02    -1.1499389E+01   
                   7.2413065E-06    -3.7867824E+01     2.0650631E-02     1.7757723E+02     5.6469896E-06    -7.7931580E+01     4.1372210E-04    -7.7583591E+01   
                   1.5605585E-06     7.2963033E+01     1.8757606E-05    -1.5338121E+02     9.6746529E-02    -1.7943987E+02     2.7479444E-06    -1.6161525E+02   
                   7.7218588E-03     1.7557893E+02     8.7810421E-07     1.2570670E+02   