! S-parameter export from POSTFEKO
! Filename: circular_3wg_5modes_V2
! Creation date: 2020-01-10 13:08:08
! 
# Hz S MA R    5.0000000E+01 
  4.0000000E+09     3.2422979E-01     1.8364089E-03     4.8471516E-06    -8.6781407E+01     6.2498638E-02    -1.7999725E+02     9.5963698E-06     7.7306212E+01   
                   3.9220486E-02     2.5595261E-03     7.9807454E-01     1.9244915E-04     2.1363510E-06     1.1237021E+02     1.3230543E-01    -6.7583245E-04   
                   1.3691527E-05    -5.1876233E+01     7.7341552E-02    -1.7999876E+02   
                   4.9394024E-06     1.4825917E+02     1.0943695E-02     1.0569533E-02     4.8170359E-06    -5.3635379E+01     9.8532840E-03    -1.7999448E+02   
                   5.9847503E-07     3.6126174E+00     1.0108931E-05     1.6531108E+02     5.8573636E-01    -1.7999999E+02     3.2834807E-06     8.9738832E+01   
                   8.9761053E-02    -1.7999940E+02     2.1192911E-06    -8.0706779E+01   
                   6.2496186E-02     1.7999582E+02     1.5948947E-06     1.4406202E+02     2.0860508E-02    -1.4024811E-06     5.9704274E-06    -5.1200614E+01   
                   1.6661706E-02     1.7999851E+02     5.2844538E-02     1.7999752E+02     3.5586136E-06    -6.8895259E+01     4.4221050E-01     2.4754685E-04   
                   8.6989881E-06     9.2781165E+01     9.9844203E-02     2.9161664E-05   
                   4.9307797E-06     1.4698190E+02     9.8474390E-03     1.7998750E+02     2.5240551E-06    -9.1101923E+01     9.1524511E-03    -8.3696860E-03   
                   1.1694918E-08     6.0407211E+00     9.3985843E-06    -1.5900601E+02     5.9252708E-02    -1.7907677E-03     3.4745826E-06     9.0101620E+01   
                   3.3551683E-01     1.7999941E+02     2.4019778E-06    -1.2352873E+02   
                   3.9222061E-02    -2.2624336E-04     1.8415487E-06    -7.7229492E+01     1.6660676E-02     1.7999994E+02     1.1181318E-06    -8.9058204E+01   
                   1.7720241E-02    -5.7772102E-03     3.0372562E-02    -2.2410541E-04     2.6362055E-06     1.3507572E+02     5.5007918E-02    -1.7999993E+02   
                   7.9216625E-06     1.3039660E+02     2.5531499E-01     9.4338676E-05   
                   7.9807282E-01     3.7715813E-04     6.6300289E-06    -1.5355546E+02     5.2847369E-02    -1.7999996E+02     1.6673962E-06     5.2248488E+01   
                   3.0374142E-02     7.4230346E-04     4.0769388E-01     1.7999952E+02     4.3337687E-06     9.4079975E+01     7.6506942E-02    -1.3318211E-03   
                   1.5710622E-06     2.1021125E+01     4.9310963E-02     1.7999979E+02   
                   1.3820327E-06     1.3073010E+02     5.8573256E-01    -1.7999974E+02     1.1231764E-06    -1.7669229E+02     5.9255163E-02    -3.6756593E-05   
                   1.3738240E-06     1.7148299E+02     2.0897048E-06    -1.3787635E+02     4.5553442E-02    -1.7999492E+02     1.6883872E-06    -1.6437349E+02   
                   3.9681683E-02     4.2989527E-03     1.6876934E-06    -1.1648740E+02   
                   1.3230126E-01     6.2675691E-04     2.3585142E-06    -6.6601678E+01     4.4220951E-01     3.4667185E-06     6.4010365E-07     1.0218563E+01   
                   5.5009684E-02    -1.7999991E+02     7.6505263E-02    -3.2808405E-04     2.3001185E-06     3.4256079E+01     3.8483113E-02     1.7999924E+02   
                   2.2759377E-06     1.3359457E+02     3.0498079E-02     1.6933047E-03   
                   7.7890717E-06    -9.5741753E+01     8.9793610E-02    -1.7999976E+02     2.3749829E-06     8.2518040E+01     3.3552107E-01     1.7999989E+02   
                   1.0538358E-06    -1.2067282E+02     5.1512045E-06    -9.7880515E+01     3.9691127E-02    -4.0784089E-03     1.0078159E-06    -1.1065104E+02   
                   3.6885521E-02     1.7999836E+02     1.1186887E-06    -2.1100073E+01   
                   7.7341364E-02    -1.7999980E+02     2.9333195E-06     5.6372637E+01     9.9845036E-02     2.4046646E-04     5.8664924E-07     5.9337840E+01   
                   2.5531502E-01    -3.0799706E-05     4.9309439E-02    -1.7999855E+02     1.4981887E-06     2.3262624E+01     3.0498588E-02    -3.1229791E-04   
                   4.7665555E-06    -1.2188348E+02     2.5926926E-02    -1.7999892E+02   
  4.5000000E+09     9.2423238E-01    -1.3539132E+02     1.3927900E-06     1.7360589E+02     6.8787832E-02     1.0723925E+02     5.0453967E-06     6.9526022E+01   
                   4.1863957E-02    -6.9855706E+01     1.1393465E+00    -2.3481254E+01     3.8059774E-06     4.2726089E+00     1.2950269E-01    -6.0989055E+01   
                   2.8083075E-06    -1.3682831E+02     7.7686866E-02     1.1614260E+02   
                   2.2255002E-06     9.7629191E+01     9.8993265E-03     2.2865519E+01     9.3091702E-06     1.0302773E+02     9.4611493E-03    -1.6827403E+02   
                   5.4372798E-07    -1.2519108E+02     2.0375737E-05    -6.8795031E+01     5.9604548E-01     1.7939815E+02     2.1825939E-06    -8.2369287E+01   
                   9.0531360E-02    -1.7765585E+02     4.0932481E-06     5.2952015E+00   
                   6.8790430E-02     1.0723969E+02     3.4380758E-06     1.3569705E+02     2.0624946E-02    -1.8808842E+01     4.7059638E-06    -5.8088307E+01   
                   1.6420193E-02     1.6597991E+02     1.1532592E-01     1.5651915E+02     4.2798752E-06     1.3746611E+02     4.4970731E-01     1.4607342E+00   
                   5.6421259E-06     2.9685938E+01     9.9519319E-02    -4.0679110E+00   
                   4.2380881E-06     5.7096559E+01     9.4608923E-03    -1.6829538E+02     1.4194240E-06     1.2336490E+02     9.0494593E-03     6.0707508E+00   
                   8.4177583E-07    -1.0311646E+02     6.4725329E-06     8.3670158E+01     6.0037618E-02    -2.9912203E+00     2.9867340E-06     1.3582597E+02   
                   3.3843832E-01     1.7968666E+02     8.8602742E-07     1.7981031E+02   
                   4.1867094E-02    -6.9855044E+01     1.9107381E-06     2.2627030E+01     1.6423487E-02     1.6597841E+02     4.4643814E-06    -1.7772672E+02   
                   1.7541787E-02    -7.7977973E+00     6.8995975E-02    -2.3480797E+01     2.0694335E-06    -8.5179428E+01     5.7215606E-02    -1.7311621E+02   
                   7.8253772E-07    -1.0939516E+02     2.5792075E-01     9.3837897E-01   
                   1.1393458E+00    -2.3481290E+01     1.5147581E-06     4.8541876E+00     1.1532709E-01     1.5651873E+02     3.0370004E-06     6.2614144E+01   
                   6.8992866E-02    -2.3480975E+01     9.9999817E-01     4.3037443E+01     3.4765372E-06     9.0696045E+01     1.9880442E-01    -2.3482288E+01   
                   4.9875945E-06    -1.5815097E+01     1.2241855E-01     1.5651741E+02   
                   5.9246973E-06    -2.4514142E+01     5.9604733E-01     1.7939781E+02     9.2968893E-07     1.5421728E+02     6.0036801E-02    -2.9889183E+00   
                   4.2915958E-07    -1.6975353E+01     1.1869671E-05     6.3797333E+01     4.3894409E-02     1.6655260E+02     2.1947705E-06    -1.3580452E+02   
                   3.9266556E-02    -8.8471594E+00     4.5663550E-07     6.2491961E+01   
                   1.2950437E-01    -6.0988311E+01     1.5735165E-06    -9.2139290E+01     4.4970628E-01     1.4608099E+00     1.6155577E-06     7.1741355E+01   
                   5.7214986E-02    -1.7311571E+02     1.9880831E-01    -2.3481452E+01     1.4165947E-06     1.0652691E+02     4.6293998E-02    -1.5473040E+02   
                   8.7474903E-07     4.9211113E+01     3.4905898E-02     2.0401290E+01   
                   4.6585176E-06    -1.6162297E+02     9.0534977E-02    -1.7765326E+02     8.3279261E-07     1.3992714E+01     3.3843632E-01     1.7968615E+02   
                   3.2127484E-07    -1.5208756E+02     2.6029390E-06    -1.4908492E+02     3.9266170E-02    -8.8451184E+00     2.1015955E-06    -1.0350790E+02   
                   3.6852960E-02     1.7443430E+02     8.5412419E-07     1.9533446E+01   
                   7.7687447E-02     1.1614422E+02     1.4720848E-06    -5.3679760E+01     9.9521439E-02    -4.0672842E+00     1.3138194E-06     1.7692078E+02   
                   2.5792121E-01     9.3821711E-01     1.2241746E-01     1.5651832E+02     4.3988573E-07    -1.6053120E+02     3.4904512E-02     2.0403679E+01   
                   1.2111881E-06    -1.7885615E+02     2.8365089E-02    -1.6468053E+02   
  5.0000000E+09     1.1403764E-01     1.6591984E+02     4.9035400E-06    -1.1166009E+02     4.8474840E-02     1.2017574E+02     7.8495306E-06     1.5812190E+01   
                   2.9366081E-02    -5.5203238E+01     9.9347512E-01    -8.0154794E+00     7.8831708E-06     1.7448121E+01     9.0434682E-02    -4.1211737E+01   
                   1.1367241E-05     5.1689481E+00     5.4208234E-02     1.3421065E+02   
                   1.8470373E-06     1.5943091E+02     8.5885404E-03     1.5063786E+01     3.4509909E-06     1.2916321E+02     9.3975624E-03    -1.7334141E+02   
                   3.1453556E-06     5.1433685E+01     1.5744817E-06    -3.7117635E+01     6.0548795E-01     1.7966331E+02     8.2700227E-07     4.3479416E+00   
                   9.2784188E-02    -1.7872376E+02     1.3176611E-06    -8.5681459E+01   
                   4.8481238E-02     1.2017178E+02     3.8845164E-06     1.4672181E+01     1.8465331E-02    -8.2287942E+00     2.4872621E-06     1.2152362E+02   
                   1.5122769E-02     1.7393122E+02     5.4175639E-02     1.4023387E+02     5.3092606E-06     5.4076797E+01     4.6017643E-01     5.8703507E-01   
                   6.4980612E-06     7.8852512E+01     9.7735720E-02    -1.6921381E+00   
                   1.6806510E-06     3.6855178E+01     9.3880511E-03    -1.7337593E+02     7.9055632E-07     1.2063408E+02     9.2161919E-03     3.3012345E+00   
                   1.4910718E-06     2.5650860E+01     2.9316059E-06     3.5396326E+01     5.9479558E-02    -1.6702130E+00     1.4801213E-06     1.2492559E+02   
                   3.4099002E-01     1.7982977E+02     1.0178658E-06    -3.7317294E+01   
                   2.9373559E-02    -5.5208085E+01     1.7805526E-06    -1.7017885E+02     1.5121269E-02     1.7392916E+02     5.8495121E-06    -1.0162709E+02   
                   1.6844436E-02    -3.3083689E+00     3.2918201E-02    -4.3456624E+01     6.0517676E-06    -1.7232835E+02     6.0628471E-02    -1.7724455E+02   
                   1.3214232E-06     1.4680840E+02     2.6161546E-01     3.8876831E-01   
                   9.9347547E-01    -8.0158331E+00     5.9615961E-06    -1.3312066E+02     5.4171590E-02     1.4023050E+02     2.5815464E-06     2.2813443E+01   
                   3.2910654E-02    -4.3458089E+01     1.1403891E-01    -1.9519883E+00     3.3278571E-06     3.5839938E+01     1.0074890E-01    -5.4626543E+01   
                   3.1418286E-06    -1.3692042E+02     6.0653586E-02     1.2904539E+02   
                   1.6614153E-06     2.2989242E+01     6.0548573E-01     1.7966337E+02     6.7649979E-07    -4.5385683E+01     5.9483364E-02    -1.6719961E+00   
                   1.1716088E-07     1.2941555E+02     4.5643952E-07    -7.4876803E-01     3.5042021E-02     1.7067699E+02     2.9910569E-07    -6.9698766E+01   
                   3.5377805E-02    -5.3515786E+00     7.9031025E-07    -8.8869800E+01   
                   9.0434862E-02    -4.1210191E+01     1.0958628E-06    -8.8880728E+01     4.6017600E-01     5.8695022E-01     1.1178572E-06    -1.0326032E+01   
                   6.0627486E-02    -1.7724418E+02     1.0074928E-01    -5.4626027E+01     1.1699350E-06    -1.4531006E+02     5.5222608E-02    -1.7044769E+02   
                   1.0346741E-06     5.2908680E+01     4.0198894E-02     7.8528148E+00   
                   2.4321308E-06    -1.5752052E+02     9.2787015E-02    -1.7872369E+02     1.1879771E-06    -1.7124329E+01     3.4098823E-01     1.7983046E+02   
                   3.3292530E-07     8.3755325E+01     1.4092749E-06    -1.5666215E+02     3.5374984E-02    -5.3544199E+00     1.2743319E-06    -1.0448976E+02   
                   3.5081513E-02     1.7686596E+02     5.4631962E-07    -1.3495308E+02   
                   5.4206048E-02     1.3421008E+02     1.5323441E-06    -1.3433012E+02     9.7736012E-02    -1.6925811E+00     6.9313661E-07    -4.3756105E+01   
                   2.6161481E-01     3.8865138E-01     6.0653119E-02     1.2904499E+02     5.7072449E-07     1.2278769E+02     4.0198983E-02     7.8526130E+00   
                   1.0734361E-06    -8.3089295E+01     3.1510202E-02    -1.7397187E+02   
  5.5000000E+09     4.0016799E-02     1.5786380E+02     8.6850675E-06     9.6531910E+01     4.3513515E-02     1.1435518E+02     8.1485566E-06     8.2150414E+01   
                   2.6219083E-02    -5.9583316E+01     9.9919804E-01    -1.1711902E+01     9.4728463E-06     1.0502932E+02     8.0320312E-02    -4.1393267E+01   
                   8.1420588E-06    -1.3821917E+02     4.8104653E-02     1.3257487E+02   
                   3.3652202E-06    -1.0427920E+02     5.1433118E-03     2.4948232E+01     2.5227987E-06     7.3050088E+01     8.3334998E-03    -1.7295018E+02   
                   1.1651156E-06    -1.7590749E+02     5.2060512E-06     1.8094497E+01     6.1998450E-01     1.7968896E+02     2.6956195E-06    -1.0979338E+02   
                   9.3494173E-02    -1.7882251E+02     1.4892819E-06    -1.4563562E+02   
                   4.3512873E-02     1.1435549E+02     4.7453747E-06     1.7594620E+02     1.9492870E-02    -5.7912329E+00     5.1259643E-06    -1.4861333E+02   
                   1.5675066E-02     1.7568169E+02     4.5199421E-02     1.4319880E+02     3.8641014E-06     1.2757431E+02     4.6662445E-01     4.0916834E-01   
                   3.7441096E-06    -8.5088294E+01     9.9170104E-02    -1.1993402E+00   
                   5.9667554E-06    -9.5423657E+01     8.3335051E-03    -1.7294926E+02     1.4381189E-06    -8.0603677E+01     8.9353215E-03     3.1201790E+00   
                   1.8613193E-06     7.9617910E+01     1.8754088E-06     4.1953815E+01     6.0533163E-02    -1.5253039E+00     7.1639287E-07    -9.3990509E+01   
                   3.4481277E-01     1.7984865E+02     1.5544632E-06     1.6614623E+02   
                   2.6218789E-02    -5.9586427E+01     3.0212544E-06    -7.3099981E+01     1.5674636E-02     1.7568604E+02     1.2821764E-06    -5.0340967E+01   
                   1.7203848E-02    -2.3839296E+00     2.7283617E-02    -4.2405191E+01     5.6047000E-06     4.9987831E+01     6.1339826E-02    -1.7804859E+02   
                   1.9571403E-06    -9.8134663E+01     2.6376818E-01     2.7931403E-01   
                   9.9919615E-01    -1.1711565E+01     3.4500708E-06     1.9129486E+01     4.5197997E-02     1.4320576E+02     3.0481556E-06     4.8747350E+01   
                   2.7282867E-02    -4.2399228E+01     4.0019447E-02    -1.2835388E+00     4.3393979E-06     1.0722044E+02     8.3205242E-02    -5.9230531E+01   
                   3.9522349E-06    -1.4171732E+02     4.9983881E-02     1.2637342E+02   
                   1.3127284E-06     5.1952016E+01     6.1999166E-01     1.7968805E+02     6.4057649E-07    -1.3827301E+02     6.0536502E-02    -1.5148034E+00   
                   6.5190178E-07    -4.0102527E+01     1.2862261E-06     1.5001716E+01     3.0080804E-02     1.6991713E+02     1.0762677E-06    -1.6243259E+02   
                   3.4215204E-02    -5.0358029E+00     5.2390038E-07    -4.2648096E+01   
                   8.0321413E-02    -4.1394762E+01     2.5003659E-06    -5.9749756E+01     4.6662692E-01     4.0906850E-01     9.6243438E-07    -1.3777143E+02   
                   6.1340590E-02    -1.7805019E+02     8.3202785E-02    -5.9230767E+01     1.7168994E-06    -9.7532668E+01     5.7438156E-02    -1.7331359E+02   
                   1.2145959E-06     1.7113225E+02     4.1178233E-02     5.5610894E+00   
                   5.9167424E-07    -1.0844662E+02     9.3494801E-02    -1.7882090E+02     1.0688074E-06    -6.2670052E+01     3.4481144E-01     1.7984847E+02   
                   2.4584400E-07     8.8144118E-02     2.7643269E-06    -1.5101904E+02     3.4212043E-02    -5.0291457E+00     1.1867080E-06     1.0284743E+02   
                   3.4992136E-02     1.7720086E+02     6.5934057E-07    -5.4160147E+01   
                   4.8100460E-02     1.3257119E+02     2.2111098E-06    -8.3929994E+01     9.9169241E-02    -1.1986512E+00     6.9710425E-07    -1.2136346E+02   
                   2.6376821E-01     2.7909530E-01     4.9982477E-02     1.2637386E+02     3.5073495E-06    -1.1628487E+02     4.1178137E-02     5.5605113E+00   
                   3.7129063E-06     1.1448308E+02     3.1892459E-02    -1.7567481E+02   
  6.0000000E+09     1.1808013E-02     1.4731686E+02     4.9736810E-06    -2.9539111E+01     4.0368471E-02     1.0934800E+02     3.7217564E-06     1.4036971E+02   
                   2.4164877E-02    -6.3245814E+01     9.9992583E-01    -1.4731483E+01     2.1014688E-05    -6.9392838E+01     7.3563094E-02    -4.1209197E+01   
                   1.2173929E-05     7.3696215E+01     4.4019120E-02     1.3136769E+02   
                   8.3381415E-06    -8.0541004E+01     2.4721892E-03     1.0650534E+02     6.4201238E-07    -9.4416980E+00     6.9101076E-03    -1.7100347E+02   
                   8.6759475E-07    -2.3686918E+01     7.2592038E-06     5.5373640E+00     6.3721983E-01     1.7967779E+02     1.3120605E-06     1.6197205E+02   
                   9.4251601E-02    -1.7878759E+02     2.2870615E-06     2.0628332E+01   
                   4.0366856E-02     1.0935225E+02     1.0536188E-05    -4.1455529E+01     2.0772748E-02    -4.5549796E+00     5.7101280E-06    -3.2885790E+01   
                   1.6340188E-02     1.7656581E+02     4.0832101E-02     1.4570866E+02     1.1948886E-05    -1.2803076E+01     4.7392580E-01     3.1647691E-01   
                   1.2570598E-05     6.6264449E+01     1.0081680E-01    -9.4756346E-01   
                   3.7651091E-06     7.0656663E+01     6.9155876E-03    -1.7108986E+02     7.0993618E-07    -1.1987295E+02     8.5761392E-03     3.3245122E+00   
                   9.7327152E-07    -9.7283823E+01     3.7319327E-06    -1.0517356E+02     6.1796069E-02    -1.5297478E+00     6.3298295E-07    -1.7895960E+02   
                   3.4909860E-01     1.7985075E+02     2.2258446E-06     1.2570621E+02   
                   2.4165357E-02    -6.3262707E+01     1.1261770E-05    -1.2446579E+02     1.6337856E-02     1.7657703E+02     4.6630647E-06    -7.0247529E+01   
                   1.7613937E-02    -1.9224672E+00     2.4450335E-02    -4.1536152E+01     1.6481007E-05     7.2716014E+01     6.2159199E-02    -1.7846632E+02   
                   7.0048561E-06     4.6179128E+01     2.6615970E-01     2.2414962E-01   
                   9.9992878E-01    -1.4731805E+01     1.4620826E-06     9.5265161E+00     4.0818719E-02     1.4570789E+02     4.0480354E-07    -1.2820197E+02   
                   2.4451857E-02    -4.1530647E+01     1.1818983E-02     3.1963947E+00     3.3250074E-06     5.4649859E+00     7.4235465E-02    -6.3091729E+01   
                   2.7396246E-06     1.3543292E+02     4.4483224E-02     1.2418593E+02   
                   1.3266058E-06    -5.0715409E+01     6.3721515E-01     1.7967748E+02     1.3397812E-06    -8.7866503E+01     6.1786512E-02    -1.5171062E+00   
                   2.1849992E-07    -1.5107085E+02     2.9700141E-06    -3.5772627E+01     2.3124706E-02     1.6641030E+02     1.7576500E-06    -9.3646563E+01   
                   3.2759395E-02    -5.2931049E+00     1.3224502E-06     6.6185806E+01   
                   7.3563439E-02    -4.1205303E+01     2.2386388E-06    -1.5789164E+01     4.7393206E-01     3.1677903E-01     1.7385675E-06    -1.5597968E+02   
                   6.2155138E-02    -1.7846207E+02     7.4234636E-02    -6.3093399E+01     2.6540215E-06     3.1815239E+01     6.0207444E-02    -1.7479708E+02   
                   1.7294639E-06     3.6296294E+01     4.2372863E-02     4.3898474E+00   
                   1.1605783E-06    -1.1217203E+02     9.4258557E-02    -1.7878836E+02     9.2762785E-07     1.0856437E+02     3.4910757E-01     1.7985073E+02   
                   2.5863504E-07    -1.6775950E+02     3.7659152E-06    -1.4693222E+02     3.2766218E-02    -5.2927481E+00     1.9088526E-06     1.5083219E+02   
                   3.4911361E-02     1.7723844E+02     5.2437052E-07    -3.2291656E+01   
                   4.4010540E-02     1.3136908E+02     2.2879068E-06     4.2290189E+01     1.0082017E-01    -9.4785845E-01     3.4348987E-06    -1.3406155E+02   
                   2.6615804E-01     2.2425567E-01     4.4484659E-02     1.2418693E+02     2.6421112E-06     2.7158106E+01     4.2371473E-02     4.3892891E+00   
                   3.3342488E-06     4.7234648E+01     3.2346713E-02    -1.7653007E+02   
  6.5000000E+09     3.5393210E-03    -7.4118150E+00     9.8959934E-06     4.8084706E+01     3.8231679E-02     1.0467450E+02     1.8460451E-06     2.0615055E+01   
                   2.2709357E-02    -6.6589936E+01     9.9999460E-01    -1.7441255E+01     1.7782522E-05     1.5038321E+00     6.8607154E-02    -4.0828908E+01   
                   1.4137830E-05     8.9996546E+01     4.1001209E-02     1.3033489E+02   
                   5.5974451E-06    -9.0456265E+01     9.3537313E-03     1.6288384E+02     3.2238563E-06    -1.5016430E+02     4.9489878E-03    -1.6595536E+02   
                   1.2839726E-06     3.4789038E+01     1.6557522E-06     1.2554653E+02     6.5781399E-01     1.7964908E+02     2.4089094E-06     8.6009829E+01   
                   9.5081981E-02    -1.7869332E+02     9.2279287E-07     2.6525089E+01   
                   3.8235683E-02     1.0466309E+02     9.3930211E-06     4.9681761E+01     2.2349705E-02    -3.7441477E+00     1.8104701E-06     4.2440823E+01   
                   1.7129686E-02     1.7713027E+02     3.8158592E-02     1.4804055E+02     1.1141018E-05     5.1324772E+01     4.8217792E-01     2.5551064E-01   
                   1.3397609E-05     1.5739701E+02     1.0270915E-01    -7.8591354E-01   
                   1.7941664E-05    -1.4553342E+02     4.9558446E-03    -1.6590841E+02     3.2723468E-06     7.8162546E+01     8.1253004E-03     3.7181301E+00   
                   2.1347653E-06     3.3771993E+01     5.8131018E-06    -3.9501628E+01     6.3264116E-02    -1.5874036E+00     5.0559109E-06     6.1405859E+01   
                   3.5390437E-01     1.7984446E+02     2.1378822E-06    -1.5571633E+02   
                   2.2710385E-02    -6.6579152E+01     7.7252710E-06     3.7847458E+01     1.7128508E-02     1.7713188E+02     3.5824495E-07    -1.2699935E+02   
                   1.8084699E-02    -1.6281004E+00     2.2647698E-02    -4.0734741E+01     3.4549745E-06     2.7304075E+01     6.3078219E-02    -1.7873075E+02   
                   3.0332950E-06    -1.5020135E+02     2.6879503E-01     1.8914408E-01   
                   9.9999417E-01    -1.7442034E+01     3.2376373E-06     1.5669637E+02     3.8150468E-02     1.4804896E+02     2.4793564E-07     4.3331214E+01   
                   2.2645921E-02    -4.0734127E+01     3.5319377E-03     1.5261124E+02     2.5076006E-06     4.9793308E+01     6.8373865E-02    -6.6669711E+01   
                   3.5400735E-06     1.7165723E+02     4.0854875E-02     1.2223075E+02   
                   1.5359716E-06     8.4781810E+01     6.5780099E-01     1.7964898E+02     7.4588974E-07    -1.2494967E+01     6.3264327E-02    -1.5916516E+00   
                   2.2429563E-07     4.2600901E+01     1.7382832E-06     4.6240822E+01     1.3080271E-02     1.5323683E+02     2.7677848E-07    -8.8497545E+01   
                   3.0860301E-02    -5.9091966E+00     4.6498249E-07     2.4811608E+01   
                   6.8607120E-02    -4.0829177E+01     9.8906446E-07    -8.5272862E+01     4.8218014E-01     2.5582312E-01     5.8162359E-07    -1.3145082E+02   
                   6.3076967E-02    -1.7873017E+02     6.8375091E-02    -6.6669182E+01     2.6180666E-06     1.6074768E+02     6.3574780E-02    -1.7576818E+02   
                   7.3595844E-07    -1.7896197E+02     4.3770175E-02     3.6277597E+00   
                   3.2124367E-06     1.7060195E+02     9.5073782E-02    -1.7868924E+02     1.5705068E-06     4.8512493E+01     3.5390823E-01     1.7984660E+02   
                   2.5307775E-07    -1.7924067E+02     2.2369545E-06     1.5474343E+02     3.0858018E-02    -5.9134270E+00     1.0590585E-07     1.5055733E+02   
                   3.4826890E-02     1.7717785E+02     6.6345880E-07    -5.6927006E+01   
                   4.0998180E-02     1.3033577E+02     4.9783149E-07     1.3297065E+00     1.0271188E-01    -7.8547770E-01     2.6992014E-07    -1.4773932E+02   
                   2.6879352E-01     1.8920193E-01     4.0853018E-02     1.2223161E+02     7.5774841E-07     1.5145487E+02     4.3771228E-02     3.6282915E+00   
                   7.0707650E-07    -8.1435328E+01     3.2855412E-02    -1.7707743E+02   
  7.0000000E+09     1.2649822E-02    -3.0114556E+01     1.1439189E-05    -8.7767619E+01     3.6762805E-02     1.0015611E+02     3.6602501E-06     1.3427299E+02   
                   2.1627539E-02    -6.9758087E+01     9.9992371E-01    -1.9978072E+01     1.0935714E-05    -8.1541641E+01     6.4705955E-02    -4.0297295E+01   
                   3.0819370E-06     6.5072440E+01     3.8624159E-02     1.2937230E+02   
                   9.1856068E-06     1.5859069E+02     2.2839540E-02     1.7143424E+02     7.7547273E-07    -7.1426677E+01     2.2966001E-03    -1.4257707E+02   
                   1.8790772E-06    -6.9435569E+01     4.8901769E-06    -1.2418354E+02     6.8270792E-01     1.7960235E+02     5.8911409E-06    -9.5536251E+01   
                   9.5938237E-02    -1.7852887E+02     3.6795815E-06     1.0639112E+02   
                   3.6752799E-02     1.0016065E+02     3.4585002E-06    -3.7492375E+01     2.4296918E-02    -3.1573025E+00     2.5532035E-06     1.2054991E+02   
                   1.8067942E-02     1.7754133E+02     3.6408927E-02     1.5032081E+02     7.9463672E-06    -5.4727138E+01     4.9147538E-01     2.1066288E-01   
                   7.1133157E-06     1.0959188E+02     1.0487777E-01    -6.6769407E-01   
                   1.3416592E-05     1.2324090E+02     2.3057964E-03    -1.4278004E+02     5.2322973E-06     7.4690179E+01     7.5371257E-03     4.3512605E+00   
                   2.5279671E-07    -8.1939586E+01     3.0621417E-06    -1.2550881E+02     6.5030520E-02    -1.7214194E+00     4.5619747E-06    -1.2757758E+02   
                   3.5924508E-01     1.7983743E+02     4.2671002E-06     7.3533023E+01   
                   2.1627041E-02    -6.9761678E+01     2.6336840E-06     2.8718705E+01     1.8070945E-02     1.7753971E+02     3.2244567E-06    -4.6545813E+01   
                   1.8617307E-02    -1.4277821E+00     2.1375264E-02    -3.9974348E+01     3.8710377E-06     1.5902929E+02     6.4119202E-02    -1.7892584E+02   
                   4.7110213E-06    -9.0243284E+01     2.7168757E-01     1.6465066E-01   
                   9.9991735E-01    -1.9978520E+01     1.3093808E-06     4.1366679E+00     3.6402994E-02     1.5032877E+02     1.5457070E-06     1.4271555E+02   
                   2.1373529E-02    -3.9972945E+01     1.2652043E-02     1.7017813E+02     2.0781859E-06     9.2359953E+00     6.4080605E-02    -7.0141206E+01   
                   2.3942478E-06    -1.7391018E+02     3.8167652E-02     1.2040813E+02   
                   3.4031398E-06     6.9503763E+01     6.8269744E-01     1.7960141E+02     1.0157185E-07    -6.9866282E+01     6.5041087E-02    -1.7167672E+00   
                   2.8942247E-07     7.3438428E+01     1.8079110E-06     7.0352131E+01     8.8744888E-03     4.8199658E+01     1.0382293E-06    -1.2016422E+02   
                   2.8289229E-02    -6.9634818E+00     8.3242006E-07     4.9930595E+01   
                   6.4704747E-02    -4.0302911E+01     1.4795197E-06    -1.2325756E+02     4.9147469E-01     2.1032000E-01     1.2408597E-06     5.6681706E+01   
                   6.4116920E-02    -1.7892658E+02     6.4080620E-02    -7.0142343E+01     9.6955933E-07     1.9349434E+01     6.7667103E-02    -1.7648705E+02   
                   7.1221176E-07    -5.2085755E+01     4.5396805E-02     3.0703853E+00   
                   1.8561462E-06    -1.6165410E+02     9.5933574E-02    -1.7852852E+02     7.3032376E-07     1.1269694E+02     3.5925043E-01     1.7983908E+02   
                   5.1250429E-08    -9.8677207E+01     2.1074901E-06    -1.7531165E+02     2.8293523E-02    -6.9636001E+00     6.6543024E-07     9.0509711E+01   
                   3.4749708E-02     1.7705861E+02     2.5143995E-07    -1.5975309E+02   
                   3.8626710E-02     1.2937806E+02     1.0199840E-06    -1.1100871E+02     1.0487966E-01    -6.6718812E-01     1.3020734E-06     1.5479842E+02   
                   2.7168620E-01     1.6428392E-01     3.8165614E-02     1.2040937E+02     1.2258583E-06    -1.2167879E+01     4.5397277E-02     3.0703910E+00   
                   1.3359637E-06    -4.9310662E+01     3.3413637E-02    -1.7747074E+02   
  7.5000000E+09     1.9168928E-02    -3.8357862E+01     7.9465809E-06     1.6276101E+02     3.5801877E-02     9.5729305E+01     4.7936003E-06    -1.1440414E+02   
                   2.0822484E-02    -7.2829657E+01     9.9981994E-01    -2.2417871E+01     2.8795426E-05     1.0538595E+02     6.1444108E-02    -3.9621669E+01   
                   1.8625623E-05    -1.1858350E+02     3.6662665E-02     1.2844319E+02   
                   4.1878414E-06     1.6116098E+02     4.8066220E-02     1.7457515E+02     7.5832884E-06    -1.4299294E+01     3.3732613E-03    -3.0498349E+01   
                   2.0476125E-06     1.5019559E+02     6.4620222E-06     1.0681007E+02     7.1313136E-01     1.7952692E+02     2.2513720E-06    -2.7202179E+01   
                   9.6824736E-02    -1.7828378E+02     3.5686032E-06    -1.6736579E+02   