! S-parameter export from POSTFEKO
! Filename: circular_3wg_1_modes_ratio_2
! Creation date: 2020-01-25 10:01:35
! 
# Hz S MA R    5.0000000E+01 
  1.0000000E+09     7.6597681E-01    -1.7999991E+02     1.2037199E-02    -4.7662105E-04     1.2036986E-02     4.7881628E-04     8.1143391E-03    -6.9850368E-03   
  1.5000000E+09     1.0000017E+00     1.0924199E+02     3.9061978E-02     9.6211068E+00     3.9061854E-02     9.6208883E+00     1.1085626E-02    -3.9490509E+00   
  2.0000000E+09     1.0000002E+00     5.2601132E+01     9.3451496E-02    -1.8699278E+01     9.3450849E-02    -1.8699409E+01     1.9671947E-02    -1.2825319E+01   
  2.5000000E+09     6.9625958E-01     3.3273713E+01     8.4099059E-02    -5.8780410E+01     8.4099649E-02    -5.8780271E+01     2.2498221E-02    -2.3766543E+01   
  3.0000000E+09     4.1040078E-01    -1.6939889E+01     1.6492574E-01    -9.1081934E+01     1.6492615E-01    -9.1082342E+01     4.5944055E-02    -3.9604283E+01   
  3.5000000E+09     1.2779964E-01     3.1615721E+01     2.8648324E-01    -1.3113587E+02     2.8648329E-01    -1.3113643E+02     1.0773476E-01    -5.9882049E+01   
  4.0000000E+09     6.8509835E-01    -4.6422181E+00     4.3190840E-01     1.4947203E+02     4.3190644E-01     1.4947200E+02     4.1816811E-01    -1.3407594E+02   
  4.5000000E+09     3.0191302E-01    -5.6677218E+01     4.9426106E-01     8.5878940E+01     4.9425798E-01     8.5879449E+01     2.0667731E-01     1.3811413E+02   
  5.0000000E+09     4.0221601E-01    -6.3882514E+00     1.8646902E-01     2.8907426E+01     1.8646866E-01     2.8907784E+01     4.0066272E-01     7.0678813E+01   
  5.5000000E+09     7.1006163E-01    -5.9718885E+01     3.7576453E-01     4.5459378E+01     3.7576344E-01     4.5459192E+01     2.9232299E-01    -3.3951947E+01   
  6.0000000E+09     5.9173153E-01    -9.3383809E+01     4.6919876E-01    -2.2017133E+01     4.6920807E-01    -2.2015781E+01     7.4450031E-02    -1.1321470E+02   
  6.5000000E+09     6.0260518E-01    -1.1429148E+02     4.5196007E-01    -7.1255538E+01     4.5195598E-01    -7.1255057E+01     1.7307678E-02     1.7843293E+02   
  7.0000000E+09     7.0887991E-01    -1.3849820E+02     4.1696092E-01    -1.1340348E+02     4.1696698E-01    -1.1340300E+02     1.1911671E-02     1.0684531E+02   
  7.5000000E+09     7.9426271E-01    -1.6867127E+02     3.9764511E-01    -1.5365515E+02     3.9764491E-01    -1.5365454E+02     1.8373759E-02     5.1687470E+01   
  8.0000000E+09     8.4271598E-01     1.5904758E+02     3.8478657E-01     1.6656995E+02     3.8478108E-01     1.6657060E+02     3.3220302E-02     6.1214150E+00   
  8.5000000E+09     8.5019401E-01     1.2497262E+02     3.5646441E-01     1.2636795E+02     3.5647219E-01     1.2636919E+02     4.9480106E-02    -7.2016040E+01   
  9.0000000E+09     7.8356095E-01     9.1443682E+01     3.5088938E-01     9.0476578E+01     3.5088521E-01     9.0478191E+01     3.9693543E-02    -8.3509739E+01   
  9.5000000E+09     6.8775618E-01     6.0104423E+01     3.5301387E-01     5.3223363E+01     3.5300537E-01     5.3224178E+01     4.2413686E-02    -1.0513254E+02   
  1.0000000E+10     5.4648250E-01     2.8416946E+01     3.3931230E-01     1.3983711E+01     3.3930590E-01     1.3983391E+01     5.5514671E-02    -1.3926953E+02   
