! S-parameter export from POSTFEKO
! Filename: circular_4wg_5modes_V2
! Creation date: 2020-01-13 16:03:06
! 
# Hz S MA R    5.0000000E+01 
  4.0000000E+09     9.9999872E-01     1.6843995E+02     6.3950017E-06    -5.1621954E+01     5.9543018E-02     3.9220653E+01     5.4025286E-06     1.2209354E+02   
                   3.3656671E-02    -1.4077764E+02     5.3504603E-01     3.9219589E+01     5.6461955E-06     1.2727970E+02     4.1303292E-02    -1.4078093E+02   
                   6.7442260E-06    -4.8790665E+01     2.2365859E-02     3.9218501E+01   
                   8.8252134E-06    -4.6675322E+01     5.5746038E-02     1.7904558E+02     8.3491836E-06     9.3916456E+01     4.2571854E-02    -6.6818193E-01   
                   7.9018934E-06    -8.8062200E+01     1.9785838E-05    -9.2027046E+01     4.9812478E-01     1.7993732E+02     6.9228212E-06     8.3611803E+01   
                   6.1013785E-02    -2.4680132E-01     5.4091248E-06    -9.2018085E+01   
                   5.9543127E-02     3.9220683E+01     8.8284804E-06     9.3801334E+01     3.1138694E-02    -1.7673138E+02     7.5626766E-06    -8.4431023E+01   
                   2.3439103E-02     2.4557396E+00     1.9599171E-01    -4.6609955E+00     5.5344426E-06    -8.9764579E+01     3.3543732E-01     2.0984024E-01   
                   6.8421743E-06     8.9922116E+01     4.7229393E-02    -1.7919311E+02   
                   5.1592762E-06     1.3101341E+02     4.2570943E-02    -6.6615033E-01     8.2629021E-06    -8.8230199E+01     3.5372522E-02     1.7957198E+02   
                   8.2338737E-06     9.1389729E+01     1.3643313E-05     8.3701393E+01     9.0910707E-02    -1.7981695E+02     5.5856900E-06    -9.0862167E+01   
                   2.3508816E-01     1.7996571E+02     3.3540283E-06     8.9164993E+01   
                   3.3656218E-02    -1.4077744E+02     7.7547334E-06    -8.6972837E+01     2.3440017E-02     2.4556854E+00     8.4744030E-06     8.9000356E+01   
                   1.9463939E-02    -1.7832534E+02     1.0215521E-01     1.7494491E+02     4.4617935E-06     8.8273358E+01     9.7620947E-02    -4.0718375E-01   
                   6.8233648E-06    -8.7317248E+01     1.6017682E-01     1.3431188E-01   
                   5.3504656E-01     3.9219750E+01     1.8755669E-05    -9.7719899E+01     1.9599033E-01    -4.6613066E+00     1.4743711E-05     7.5645649E+01   
                   1.0215532E-01     1.7494561E+02     7.5019139E-01    -1.1000188E+01     1.5898262E-05     8.5745820E+01     1.0319385E-01     1.7385230E+02   
                   2.1682288E-05    -9.7494463E+01     5.9174379E-02    -5.8050744E+00   
                   6.2190045E-06     1.2866486E+02     4.9812411E-01     1.7993708E+02     6.5356530E-06    -8.9967842E+01     9.0911471E-02    -1.7981715E+02   
                   5.7993460E-06     8.4261894E+01     1.4754107E-05     8.1218944E+01     1.0111281E-02     1.8204608E+00     3.4625176E-06    -8.7491979E+01   
                   9.2878454E-03    -1.7903273E+02     1.7373765E-06     7.5257266E+01   
                   4.1305536E-02    -1.4078090E+02     7.2885620E-06     9.2366362E+01     3.3543688E-01     2.0987972E-01     4.8558906E-06    -8.4431051E+01   
                   9.7621165E-02    -4.0712283E-01     1.0320002E-01     1.7385235E+02     3.7422487E-06    -8.6705833E+01     2.5076683E-02    -1.9500708E+00   
                   4.7235638E-06     8.8036765E+01     1.7524381E-02     1.7849016E+02   
                   7.3253515E-06    -4.9439527E+01     6.1014086E-02    -2.4799772E-01     6.9300096E-06     9.0314869E+01     2.3508758E-01     1.7996577E+02   
                   6.7549264E-06    -8.7272754E+01     2.0626813E-05    -9.3927050E+01     9.2863241E-03    -1.7902974E+02     5.4120527E-06     9.0093132E+01   
                   8.3736327E-03     5.1762768E-01     2.9933721E-06    -7.8644912E+01   
                   2.2367542E-02     3.9218184E+01     4.9390954E-06    -7.8057866E+01     4.7230325E-02    -1.7919243E+02     3.7125134E-06     9.8445169E+01   
                   1.6017648E-01     1.3435158E-01     5.9178825E-02    -5.8069185E+00     2.2142745E-06     1.5189873E+02     1.7524844E-02     1.7848869E+02   
                   3.7102734E-06    -1.0764582E+02     1.5715175E-02    -9.1247567E-01   
  4.5000000E+09     9.9999002E-01     3.5668896E+01     2.4876714E-05    -1.2118693E+02     2.1818665E-01    -2.7164079E+01     2.2154901E-05     6.5378169E+01   
                   1.1707767E-01     1.5283711E+02     1.0883236E+00    -2.7165649E+01     2.2160701E-05     6.4809511E+01     1.2674499E-01     1.5283317E+02   
                   3.0083947E-05    -1.1719660E+02     7.1258524E-02    -2.7166979E+01   
                   2.0736676E-05    -1.2062447E+02     5.0802951E-02     1.6375246E+02     1.2461647E-05     9.7905478E+01     4.0415069E-02    -1.0592154E+01   
                   1.0209508E-05    -8.6897919E+01     1.2126360E-05    -1.6075035E+02     5.0794973E-01     1.7903538E+02     7.0504098E-06     6.3957560E+01   
                   6.1121374E-02    -3.7980818E+00     5.1740436E-06    -1.2772691E+02   
                   2.1818542E-01    -2.7164060E+01     1.1673380E-05     1.0478888E+02     4.8529264E-02    -1.5062394E+02     9.4868141E-06    -7.7552121E+01   
                   3.2449109E-02     2.3185564E+01     1.3423243E-01    -6.2188561E+01     8.7591275E-06    -7.2649092E+01     3.4874799E-01     2.2719906E+00   
                   9.9087548E-06     1.1025533E+02     5.2573613E-02    -1.7149768E+02   
                   3.3284894E-05     6.2187419E+01     4.0412859E-02    -1.0591931E+01     1.1345784E-05    -7.1949355E+01     3.4376373E-02     1.7351662E+02   
                   1.0032658E-05     1.0008710E+02     1.8964801E-05     1.6691872E+01     9.3285522E-02    -1.7725466E+02     6.3916608E-06    -1.1835764E+02   
                   2.3730124E-01     1.7948912E+02     3.8406240E-06     5.3124576E+01   
                   1.1707787E-01     1.5283730E+02     1.0216110E-05    -8.4910403E+01     3.2448595E-02     2.3185291E+01     9.3154966E-06     9.4618160E+01   
                   2.4104924E-02    -1.6347353E+02     6.9870939E-02     1.1424352E+02     7.3869548E-06     1.0285064E+02     9.4700429E-02    -4.4926898E+00   
                   8.3822923E-06    -7.5932651E+01     1.6407328E-01     1.4565467E+00   
                   1.0883233E+00    -2.7165365E+01     1.5154488E-05    -1.6588862E+02     1.3423631E-01    -6.2187555E+01     1.3179606E-05     3.3190130E+00   
                   6.9871572E-02     1.1424356E+02     9.1253627E-01    -1.3953435E+02     1.2774206E-05     2.4868829E+01     7.1242153E-02     1.0450186E+02   
                   1.8219720E-05    -1.6217516E+02     4.0679766E-02    -7.2404319E+01   
                   1.6487506E-05     5.3375173E+01     5.0794864E-01     1.7903542E+02     7.3101836E-06    -8.5282830E+01     9.3286448E-02    -1.7725343E+02   
                   7.1445859E-06     1.0410866E+02     8.6460163E-06     3.0973454E+01     1.0580949E-02     2.9078509E+01     6.0338924E-06    -1.0476738E+02   
                   9.5598786E-03    -1.6524370E+02     1.5014739E-06     1.5220999E+02   
                   1.2675033E-01     1.5283529E+02     7.3265105E-06     6.5170810E+01     3.4875352E-01     2.2715071E+00     1.3241368E-05    -8.7577683E+01   
                   9.4701314E-02    -4.4916381E+00     7.1240678E-02     1.0450200E+02     4.0995764E-06    -8.2061773E+01     2.1590028E-02    -2.1840996E+01   
                   6.2742004E-06     7.9701868E+01     1.5508502E-02     1.6306973E+02   
                   3.6266946E-05    -1.1390696E+02     6.1125653E-02    -3.7994098E+00     1.4143611E-05     1.0520993E+02     2.3729664E-01     1.7948959E+02   
                   8.4355389E-06    -8.0177110E+01     2.2318328E-05    -1.6184531E+02     9.5564608E-03    -1.6522503E+02     5.1873492E-06     6.3101691E+01   
                   8.5688819E-03     7.7305097E+00     4.0146140E-06    -1.0669825E+02   
                   7.1261859E-02    -2.7171173E+01     4.5412706E-06    -1.4058408E+02     5.2573645E-02    -1.7149081E+02     7.5283205E-06    -3.0809111E+01   
                   1.6407458E-01     1.4570532E+00     4.0679968E-02    -7.2404642E+01     4.6405350E-07     1.6484703E+02     1.5509394E-02     1.6306777E+02   
                   1.2345966E-06    -4.7495703E+01     1.4551386E-02    -1.0049789E+01   
  5.0000000E+09     1.2984960E-01    -6.6039610E+00     1.4391079E-05    -1.4423593E+02     1.1512730E-01    -5.7028135E+01     1.2659847E-05     4.6309384E+01   
                   6.0169528E-02     1.2708964E+02     9.9152981E-01    -1.1383462E+01     1.1579876E-05     4.5489231E+01     6.1909829E-02     1.3808163E+02   
                   1.4389471E-05    -1.3787126E+02     3.5294522E-02    -4.5454461E+01   
                   1.4948815E-05    -1.3881157E+02     3.9908473E-02     1.6773432E+02     1.3918220E-05     9.1560998E+01     3.6244451E-02    -6.8715692E+00   
                   1.1554740E-05    -8.7277618E+01     1.1956692E-05    -1.4483009E+02     5.1884197E-01     1.7942346E+02     6.6840553E-06     7.1387291E+01   
                   6.0711871E-02    -2.2738970E+00     3.8642950E-06    -1.1858736E+02   
                   1.1512662E-01    -5.7028686E+01     1.3229623E-05     9.4200558E+01     5.7962082E-02    -1.6823811E+02     1.1510928E-05    -8.5206246E+01   
                   3.7362837E-02     9.4604084E+00     1.0182858E-01    -4.1806521E+01     1.0125987E-05    -7.8685055E+01     3.5994604E-01     9.6422013E-01   
                   1.1580385E-05     9.7622764E+01     5.6133407E-02    -1.7641046E+02   
                   1.2110907E-05     4.5351033E+01     3.6244329E-02    -6.8705854E+00     1.1902277E-05    -8.6764867E+01     3.2719052E-02     1.7611358E+02   
                   1.1481988E-05     8.9568295E+01     1.0323177E-05     3.2336794E+01     9.6139151E-02    -1.7841001E+02     4.9959268E-06    -1.0359540E+02   
                   2.3968479E-01     1.7970547E+02     2.8126846E-06     6.7288639E+01   
                   6.0168265E-02     1.2709020E+02     1.1511851E-05    -8.7684296E+01     3.7363677E-02     9.4597529E+00     1.0833714E-05     9.5326766E+01   
                   2.6696498E-02    -1.7308562E+02     5.2920456E-02     1.3290007E+02     8.7404658E-06     9.8910485E+01     9.3343265E-02    -1.9806397E+00   
                   9.7134772E-06    -8.4968968E+01     1.6728392E-01     6.3726426E-01   
                   9.9153258E-01    -1.1383462E+01     1.4919710E-05    -1.5522452E+02     1.0182880E-01    -4.1807083E+01     1.1995053E-05     3.8217057E+01   
                   5.2920974E-02     1.3289967E+02     1.2985468E-01     1.6383809E+02     1.2974660E-05     5.3087651E+01     5.4560420E-02     1.1865127E+02   
                   1.0656826E-05    -1.3781004E+02     3.0999265E-02    -5.6778966E+01   
                   1.4022058E-05     3.7148974E+01     5.1884311E-01     1.7942368E+02     1.0984044E-05    -8.2761435E+01     9.6139494E-02    -1.7840936E+02   
                   8.5273260E-06     9.5246581E+01     1.2168561E-05     4.1770366E+01     8.9087511E-03     2.1139343E+01     4.3617755E-06    -9.2637458E+01   
                   9.4473352E-03    -1.7096060E+02     2.0938891E-06     1.0378426E+02   
                   6.1911133E-02     1.3808185E+02     5.2144415E-06     8.9041154E+01     3.5994587E-01     9.6429860E-01     3.9894801E-06    -1.0294049E+02   
                   9.3343757E-02    -1.9810283E+00     5.4562961E-02     1.1865172E+02     4.0680682E-06    -9.9315004E+01     1.9154161E-02    -1.0241602E+01   
                   6.4530743E-06     7.9601189E+01     1.4136148E-02     1.7213642E+02   
                   1.6694753E-05    -1.3702623E+02     6.0711534E-02    -2.2725004E+00     1.3186429E-05     1.0023088E+02     2.3968360E-01     1.7970536E+02   
                   1.0385091E-05    -8.5564043E+01     1.4661648E-05    -1.3732890E+02     9.4425053E-03    -1.7095351E+02     6.1861192E-06     8.3005382E+01   
                   8.7368065E-03     4.4956329E+00     3.1924676E-06    -9.6190691E+01   
                   3.5296004E-02    -4.5451822E+01     3.5775697E-06    -1.2371490E+02     5.6134641E-02    -1.7641092E+02     3.0488192E-06     6.2796185E+01   
                   1.6728386E-01     6.3736622E-01     3.1001351E-02    -5.6778113E+01     1.5980433E-06     1.2229394E+02     1.4136038E-02     1.7213526E+02   
                   4.2209117E-06    -1.0238295E+02     1.3867238E-02    -4.5640295E+00   
  5.5000000E+09     4.4690280E-02    -7.5761586E+00     1.2310679E-05    -1.3803746E+02     9.5467372E-02    -6.2267354E+01     1.0857597E-05     4.2934530E+01   
                   4.9715659E-02     1.2402159E+02     9.9899957E-01    -1.6178391E+01     1.0821431E-05     3.8270451E+01     5.1888511E-02     1.4056800E+02   
                   1.3898499E-05    -1.4093809E+02     2.9366798E-02    -4.4806102E+01   
                   1.3510378E-05    -1.3592483E+02     3.4137440E-02     1.6635791E+02     1.4755972E-05     9.0218858E+01     3.5226217E-02    -6.5571292E+00   
                   1.2711660E-05    -9.0959544E+01     1.3055652E-05    -1.5267810E+02     5.3610928E-01     1.7945696E+02     7.4419283E-06     7.6869485E+01   
                   6.2291374E-02    -2.0886184E+00     4.1146076E-06    -1.1043157E+02   
                   9.5467096E-02    -6.2267296E+01     1.5047318E-05     9.0849732E+01     6.0634891E-02    -1.7168123E+02     1.4210012E-05    -8.3707706E+01   
                   3.8414170E-02     6.7753001E+00     9.1778213E-02    -4.2698604E+01     1.0532893E-05    -7.9801457E+01     3.6684084E-01     6.7966453E-01   
                   1.4079860E-05     9.6260839E+01     5.7027552E-02    -1.7743208E+02   
                   1.0391071E-05     4.6492906E+01     3.5226619E-02    -6.5573909E+00     1.3726296E-05    -9.0678054E+01     3.2753934E-02     1.7648337E+02   
                   1.2856868E-05     9.1051261E+01     1.0456714E-05     2.7290170E+01     9.7366893E-02    -1.7850679E+02     5.8342556E-06    -1.0111418E+02   
                   2.4337715E-01     1.7973315E+02     2.9422970E-06     7.1778644E+01   
                   4.9715500E-02     1.2402187E+02     1.2269302E-05    -8.8245574E+01     3.8414939E-02     6.7756438E+00     1.2452440E-05     9.0669174E+01   
                   2.7087076E-02    -1.7497397E+02     4.7614108E-02     1.3047102E+02     8.9216449E-06     9.1890020E+01     9.5081580E-02    -1.4227502E+00   
                   1.0689104E-05    -8.4516148E+01     1.6914742E-01     4.6373813E-01   
                   9.9900003E-01    -1.6178304E+01     1.1117712E-05    -1.4788548E+02     9.1777451E-02    -4.2698575E+01     7.8124011E-06     3.8951723E+01   
                   4.7615011E-02     1.3046939E+02     4.4694229E-02     1.5522421E+02     8.6170211E-06     2.0583865E+01     4.9749027E-02     1.1239118E+02   
                   1.2017892E-05    -1.4754164E+02     2.8096162E-02    -6.1746289E+01   
                   1.5658361E-05     3.7896939E+01     5.3611151E-01     1.7945684E+02     1.0912546E-05    -8.5789916E+01     9.7369728E-02    -1.7850676E+02   
                   8.9893731E-06     9.9255488E+01     1.1001101E-05     2.8249546E+01     5.0190582E-03     3.9682244E+01     5.2322426E-06    -8.8270208E+01   
                   8.2044934E-03    -1.6993857E+02     1.7458042E-06     7.8856702E+01   
                   5.1889349E-02     1.4056708E+02     7.2945969E-06     8.2182415E+01     3.6684073E-01     6.7967467E-01     6.4061373E-06    -9.6840218E+01   
                   9.5080649E-02    -1.4226186E+00     4.9747586E-02     1.1239259E+02     6.4148675E-06    -9.3354492E+01     2.0298105E-02    -7.3119093E+00   
                   6.9752590E-06     9.1699647E+01     1.4714569E-02     1.7432803E+02   
                   1.5102898E-05    -1.3948692E+02     6.2289956E-02    -2.0884495E+00     1.4633067E-05     9.6237838E+01     2.4337663E-01     1.7973266E+02   
                   1.1038696E-05    -8.8804840E+01     1.6140745E-05    -1.4014927E+02     8.1996922E-03    -1.6991710E+02     7.4450655E-06     9.0403214E+01   
                   8.4038083E-03     4.3737030E+00     3.7339199E-06    -9.3234684E+01   
                   2.9369645E-02    -4.4806383E+01     5.4645396E-06    -1.3049897E+02     5.7029141E-02    -1.7743247E+02     4.4283754E-06     7.5965167E+01   
                   1.6914833E-01     4.6378198E-01     2.8097488E-02    -6.1744054E+01     3.1076804E-06     8.3680847E+01     1.4714757E-02     1.7432919E+02   
                   3.9050379E-06    -9.5813035E+01     1.4220136E-02    -3.3314540E+00   
  6.0000000E+09     1.0951561E-02    -6.3792370E+00     1.1443593E-05    -1.3302855E+02     8.5408774E-02    -6.6714716E+01     1.0257009E-05     4.5777150E+01   
                   4.4295049E-02     1.2146480E+02     9.9993782E-01    -2.0149611E+01     1.1249458E-05     3.6401959E+01     4.7024846E-02     1.4261880E+02   
                   1.4230325E-05    -1.4020978E+02     2.6384749E-02    -4.4325929E+01   
                   1.1981246E-05    -1.3671956E+02     2.5841470E-02     1.6089096E+02     1.7332313E-05     9.0676469E+01     3.3934360E-02    -6.9494395E+00   
                   1.3840767E-05    -9.1901455E+01     1.2534079E-05    -1.5532567E+02     5.5691365E-01     1.7943343E+02     7.9538219E-06     7.7194700E+01   
                   6.4192886E-02    -2.1093281E+00     4.7634259E-06    -1.0644224E+02   
                   8.5408348E-02    -6.6714440E+01     1.5926923E-05     9.0587439E+01     6.4050915E-02    -1.7351280E+02     1.5238323E-05    -8.9607547E+01   
                   3.9716401E-02     5.3646759E+00     8.4671017E-02    -4.3049938E+01     1.2063601E-05    -8.1068183E+01     3.7470336E-01     5.2848577E-01   
                   1.5937541E-05     9.5226871E+01     5.8058487E-02    -1.7796768E+02   
                   1.1037934E-05     4.4333982E+01     3.3936176E-02    -6.9496081E+00     1.5706482E-05    -8.8074650E+01     3.2818724E-02     1.7651827E+02   
                   1.4144867E-05     9.0159727E+01     9.8470584E-06     2.6876574E+01     9.8714126E-02    -1.7844892E+02     7.0300721E-06    -9.8351347E+01   
                   2.4755329E-01     1.7973468E+02     3.0886514E-06     7.5770153E+01   
                   4.4293889E-02     1.2146458E+02     1.4838122E-05    -8.9120332E+01     3.9716959E-02     5.3646586E+00     1.3524566E-05     8.8805835E+01   
                   2.7550060E-02    -1.7594911E+02     4.3844666E-02     1.2861585E+02     9.8713856E-06     9.4864287E+01     9.7087833E-02    -1.1321238E+00   
                   1.1790710E-05    -8.6726676E+01     1.7122235E-01     3.7460635E-01   
                   9.9993905E-01    -2.0149515E+01     1.3776407E-05    -1.4707708E+02     8.4671585E-02    -4.3050577E+01     9.6648714E-06     3.7827338E+01   
                   4.3844900E-02     1.2861563E+02     1.0951940E-02     1.4608040E+02     1.3269313E-05     3.2046661E+01     4.6549138E-02     1.0699546E+02   
                   1.2908464E-05    -1.5196818E+02     2.6101171E-02    -6.5910913E+01   
                   1.1813582E-05     5.3681515E+01     5.5691526E-01     1.7943363E+02     1.3369718E-05    -8.6057698E+01     9.8715875E-02    -1.7844940E+02   
                   9.2906710E-06     9.6287709E+01     8.5811426E-06     3.2581158E+01     4.5891132E-03     1.2858083E+02     5.3860510E-06    -9.1960215E+01   
                   6.5141197E-03    -1.6633818E+02     2.4972832E-06     9.5465597E+01   
                   4.7025473E-02     1.4261784E+02     5.6257631E-06     9.2290002E+01     3.7470205E-01     5.2853110E-01     6.3143062E-06    -9.4483317E+01   
                   9.7087688E-02    -1.1321385E+00     4.6551020E-02     1.0699454E+02     5.6055996E-06    -7.4568771E+01     2.1750880E-02    -5.7772437E+00   
                   8.5167810E-06     8.6686703E+01     1.5424594E-02     1.7546599E+02   
                   1.5683948E-05    -1.4747386E+02     6.4192167E-02    -2.1107409E+00     1.5766021E-05     9.6133846E+01     2.4755084E-01     1.7973448E+02   
                   1.1560441E-05    -9.0618791E+01     1.5403629E-05    -1.5398955E+02     6.5128353E-03    -1.6634192E+02     8.3102284E-06     8.3563201E+01   
                   7.9799682E-03     4.7506371E+00     3.8334047E-06    -8.6672600E+01   
                   2.6387525E-02    -4.4328711E+01     5.1740415E-06    -1.2417772E+02     5.8060810E-02    -1.7796775E+02     4.2178207E-06     9.0356216E+01   
                   1.7122283E-01     3.7461248E-01     2.6101833E-02    -6.5907530E+01     1.3958540E-06     1.4335884E+02     1.5425210E-02     1.7546683E+02   
                   3.9115185E-06    -1.0367444E+02     1.4632180E-02    -2.6974482E+00   
  6.5000000E+09     7.3486879E-03     1.6587687E+02     1.3230501E-05    -1.3686575E+02     7.8868853E-02    -7.0858164E+01     1.2619496E-05     4.2247299E+01   
                   4.0715884E-02     1.1915647E+02     9.9996976E-01    -2.3741669E+01     1.0080689E-05     4.3773854E+01     4.4120431E-02     1.4452119E+02   
                   1.6668125E-05    -1.4263939E+02     2.4501877E-02    -4.3903546E+01   
                   1.2253107E-05    -1.3413443E+02     1.3986828E-02     1.3808509E+02     1.8981506E-05     8.9280615E+01     3.2187917E-02    -7.8089294E+00   
                   1.6431012E-05    -8.9357349E+01     1.1993945E-05    -1.5695331E+02     5.8220452E-01     1.7937671E+02     1.0316104E-05     8.0306455E+01   
                   6.6484321E-02    -2.2252409E+00     5.2581602E-06    -1.0452824E+02   
                   7.8869088E-02    -7.0857877E+01     1.8978120E-05     9.1459921E+01     6.8253901E-02    -1.7473600E+02     1.7363916E-05    -8.8382403E+01   
                   4.1252660E-02     4.4329737E+00     7.9334117E-02    -4.3134816E+01     1.2785732E-05    -8.2001382E+01     3.8364462E-01     4.2722686E-01   
                   1.7150054E-05     9.3201104E+01     5.9231907E-02    -1.7832122E+02   
                   9.3807472E-06     4.1568458E+01     3.2187338E-02    -7.8088148E+00     1.6276755E-05    -8.9001502E+01     3.2908110E-02     1.7643177E+02   
                   1.4453387E-05     8.9867840E+01     9.9542603E-06     2.3561611E+01     1.0018124E-01    -1.7830531E+02     6.7985299E-06    -9.8096267E+01   
                   2.5225158E-01     1.7972586E+02     3.3659558E-06     7.5606604E+01   
                   4.0715230E-02     1.1915511E+02     1.4656394E-05    -9.1504735E+01     4.1252357E-02     4.4326360E+00     1.5442915E-05     8.7889586E+01   
                   2.8068728E-02    -1.7658175E+02     4.1002828E-02     1.2698242E+02     8.6642006E-06     9.4221504E+01     9.9392770E-02    -9.4185246E-01   
                   1.2560623E-05    -8.6771165E+01     1.7351747E-01     3.1725013E-01   
                   9.9997191E-01    -2.3741516E+01     1.6795133E-05    -1.4799878E+02     7.9340955E-02    -4.3132847E+01     1.2088302E-05     4.8931331E+00   
                   4.1006827E-02     1.2698424E+02     7.3408878E-03    -3.3343652E+01     1.1484441E-05     3.0781796E+01     4.4392042E-02     1.0196195E+02   
                   1.5451950E-05    -1.5616162E+02     2.4675184E-02    -6.9726740E+01   
                   9.7079980E-06     3.5598222E+01     5.8220516E-01     1.7937705E+02     1.1632543E-05    -7.8509447E+01     1.0018004E-01    -1.7830560E+02   
                   8.7509136E-06     9.9552545E+01     9.2506634E-06     2.9927838E+01     1.4231170E-02     1.6243864E+02     8.6796559E-06    -9.4505257E+01   
                   4.1890949E-03    -1.5533188E+02     3.0801778E-06     1.0268332E+02   
                   4.4122760E-02     1.4451851E+02     7.5019963E-06     7.8854058E+01     3.8364937E-01     4.2693579E-01     1.0481345E-05    -1.0138332E+02   
                   9.9391858E-02    -9.4235153E-01     4.4391442E-02     1.0196449E+02     5.9212269E-06    -8.4399233E+01     2.3558109E-02    -4.7726117E+00   
                   8.7199908E-06     9.7507449E+01     1.6276309E-02     1.7620622E+02   
                   1.1915313E-05    -1.3514276E+02     6.6484906E-02    -2.2266411E+00     1.6714585E-05     1.0408808E+02     2.5224690E-01     1.7972497E+02   
                   1.3961677E-05    -8.5559553E+01     1.7909043E-05    -1.6956623E+02     4.1901196E-03    -1.5525501E+02     5.5442449E-06     7.3367279E+01   
                   7.4283505E-03     5.5031149E+00     4.5542610E-06    -9.0799071E+01   
                   2.4502698E-02    -4.3899711E+01     5.5959542E-06    -1.1414195E+02     5.9232327E-02    -1.7831728E+02     2.2902898E-06     1.4051912E+02   
                   1.7351658E-01     3.1745861E-01     2.4680819E-02    -6.9725386E+01     3.1305440E-06     1.1502803E+02     1.6278679E-02     1.7620441E+02   
                   5.0779092E-06    -9.3539131E+01     1.5105831E-02    -2.2940157E+00   
  7.0000000E+09     1.8999400E-02     1.6872094E+02     1.3660515E-05    -1.3762984E+02     7.4104379E-02    -7.4907447E+01     1.1334033E-05     4.1115465E+01   
                   3.8063348E-02     1.1698984E+02     9.9981702E-01    -2.7128112E+01     1.1506670E-05     3.3714129E+01     4.2305607E-02     1.4635704E+02   
                   1.4475368E-05    -1.4207279E+02     2.3203645E-02    -4.3517588E+01   
                   1.2455787E-05    -1.3940612E+02     1.7684827E-02     3.7253649E+01     2.1455561E-05     8.8552281E+01     2.9733001E-02    -9.2629129E+00   
                   1.6642824E-05    -9.1899830E+01     1.2999381E-05    -1.6178889E+02     6.1337115E-01     1.7928293E+02     1.0708454E-05     7.8984687E+01   
                   6.9285913E-02    -2.4170146E+00     6.0806404E-06    -1.0680201E+02   
                   7.4103900E-02    -7.4907875E+01     2.0333861E-05     8.8003961E+01     7.3422710E-02    -1.7565025E+02     1.8997070E-05    -9.1771930E+01   
                   4.3048692E-02     3.7417926E+00     7.5060150E-02    -4.3022041E+01     1.2599255E-05    -8.0645854E+01     3.9380366E-01     3.5121221E-01   
                   1.9137274E-05     9.3173127E+01     6.0564281E-02    -1.7858271E+02   
                   1.1912729E-05     4.2449019E+01     2.9733563E-02    -9.2618915E+00     1.9366273E-05    -9.1973144E+01     3.3034530E-02     1.7628447E+02   
                   1.6138951E-05     8.6678522E+01     1.2617902E-05     1.9864956E+01     1.0175491E-01    -1.7806803E+02     7.9887329E-06    -9.6728651E+01   
                   2.5751611E-01     1.7970940E+02     3.8120924E-06     7.8085270E+01   
                   3.8062730E-02     1.1698806E+02     1.6414621E-05    -9.1154103E+01     4.3047915E-02     3.7418279E+00     1.6755833E-05     9.0685082E+01   
                   2.8639252E-02    -1.7703933E+02     3.8728853E-02     1.2544117E+02     9.5160431E-06     9.8521109E+01     1.0204122E-01    -8.0420244E-01   
                   1.4017154E-05    -8.6405540E+01     1.7604390E-01     2.7616095E-01   
                   9.9982449E-01    -2.7128339E+01     1.4348616E-05    -1.5820966E+02     7.5058903E-02    -4.3023991E+01     2.3233952E-05     1.3080235E+01   
                   3.8729672E-02     1.2544064E+02     1.9004158E-02    -4.2956591E+01     1.1270987E-05     2.0517391E+01     4.2984339E-02     9.7111209E+01   
                   1.3125746E-05    -1.5961267E+02     2.3635406E-02    -7.3347561E+01   
                   1.5057184E-05     4.5335555E+01     6.1336956E-01     1.7928288E+02     9.6091142E-06    -8.0650956E+01     1.0175875E-01    -1.7806450E+02   
                   9.0419610E-06     9.6162049E+01     1.0473859E-05     3.9798322E+01     3.2562222E-02     1.7026298E+02     6.9274555E-06    -1.0151493E+02   
                   2.0994556E-03    -8.8177072E+01     2.1834204E-06     1.1473129E+02   
                   4.2303976E-02     1.4635918E+02     7.7748392E-06     7.0451889E+01     3.9380324E-01     3.5118651E-01     8.2945619E-06    -8.4523564E+01   
                   1.0204293E-01    -8.0363169E-01     4.2982888E-02     9.7102432E+01     6.4288852E-06    -9.0519912E+01     2.5813566E-02    -4.0406931E+00   
                   1.1633295E-05     8.4681496E+01     1.7301908E-02     1.7673587E+02   
                   1.4965665E-05    -1.3048693E+02     6.9287889E-02    -2.4161893E+00     2.0035378E-05     9.1110892E+01     2.5752679E-01     1.7971094E+02   
                   1.3185470E-05    -8.6585580E+01     1.4212208E-05    -1.6620778E+02     2.0977667E-03    -8.8114086E+01     9.1610247E-06     8.9219854E+01   
                   6.6714567E-03     6.8518438E+00     3.6037206E-06    -9.2029648E+01   
                   2.3205891E-02    -4.3534534E+01     8.2599359E-06    -8.8543898E+01     6.0569837E-02    -1.7858155E+02     3.0762426E-06     6.7711549E+01   
                   1.7604389E-01     2.7660167E-01     2.3641157E-02    -7.3345713E+01     8.4512259E-07     1.4068845E+02     1.7303862E-02     1.7673302E+02   
                   4.4155283E-06    -8.3949926E+01     1.5649694E-02    -2.0082868E+00   
  7.5000000E+09     2.7558689E-02     1.7068679E+02     1.4080251E-05    -1.3099791E+02     7.0324524E-02    -7.9025903E+01     1.1612834E-05     3.9556655E+01   
                   3.5944470E-02     1.1489383E+02     9.9961736E-01    -3.0418906E+01     8.7222229E-06     3.5282970E+01     4.1278942E-02     1.4810083E+02   
                   1.3976370E-05    -1.4573870E+02     2.2299788E-02    -4.3202421E+01   
                   1.3717789E-05    -1.3824663E+02     6.5167114E-02     1.1242477E+01     2.3771655E-05     8.6567432E+01     2.6116397E-02    -1.1826028E+01   
                   1.8227078E-05    -9.2954010E+01     1.2657018E-05    -1.6759470E+02     6.5200067E-01     1.7912511E+02     1.2011366E-05     7.8854510E+01   
                   7.2722771E-02    -2.7095999E+00     6.8095924E-06    -1.0410342E+02   