! S-parameter export from POSTFEKO
! Filename: circular_4wg_10modes_V2
! Creation date: 2020-01-14 08:18:15
! 
# Hz S MA R    5.0000000E+01 
  4.0000000E+09     9.9999857E-01     1.6847733E+02     5.6366973E-06    -5.7529464E+01     6.0406959E-02     3.9239942E+01     5.0724136E-06     1.2664997E+02   
                   3.4646160E-02    -1.4075779E+02     3.9035483E-06    -5.4556360E+01     2.0781973E-02     3.9242699E+01     4.1648007E-06     1.3780851E+02   
                   1.2596878E-02    -1.4075574E+02     2.4553502E-06    -6.7247051E+01     5.3320757E-01     3.9238458E+01     6.0140850E-06     1.2764785E+02   
                   4.0280686E-02    -1.4076274E+02     7.2935034E-06    -5.0638010E+01     2.0543992E-02     3.9237315E+01     8.5571847E-06     1.2944592E+02   
                   1.2552964E-02    -1.4076287E+02     9.1408738E-06    -5.0383263E+01     8.4730886E-03     3.9237778E+01     9.3846939E-06     1.2650346E+02   
                   7.9773841E-06    -4.8937307E+01     5.6631957E-02     1.7905370E+02     7.9078301E-06     9.3610846E+01     4.3561723E-02    -6.6066338E-01   
                   7.8487104E-06    -9.5250214E+01     3.0115694E-02     1.7943195E+02     7.2034658E-06     9.1514076E+01     2.0154299E-02    -5.1453550E-01   
                   5.8933278E-06    -9.2162744E+01     1.3340774E-02     1.7953893E+02     2.1106041E-05    -9.2274379E+01     4.9757306E-01     1.7993783E+02   
                   8.0544963E-06     8.8473973E+01     6.0298626E-02    -2.4486661E-01     5.9863723E-06    -9.2173123E+01     2.8147993E-02     1.7969023E+02   
                   4.1928517E-06     8.6681957E+01     1.6415549E-02    -3.4713556E-01     2.5084877E-06    -9.5200516E+01     1.0721979E-02     1.7963213E+02   
                   6.0405756E-02     3.9239857E+01     8.0389196E-06     9.3784151E+01     3.2126921E-02    -1.7674098E+02     8.2230192E-06    -8.6357754E+01   
                   2.4669370E-02     2.4363176E+00     6.5488060E-06     8.5874793E+01     1.7741378E-02    -1.7796621E+02     5.5475025E-06    -9.4425085E+01   
                   1.2403464E-02     1.7646623E+00     4.1914322E-06     1.0048353E+02     1.9841727E-01    -4.6541881E+00     5.9973351E-06    -9.0528271E+01   
                   3.3438388E-01     2.0821211E-01     7.4419069E-06     9.0539058E+01     4.5579982E-02    -1.7922108E+02     7.7797627E-06    -8.9797976E+01   
                   2.0595730E-02     1.0532484E+00     6.5333643E-06     9.1919913E+01     1.1955276E-02    -1.7877430E+02     6.1965632E-06    -8.5842245E+01   
                   5.4988714E-06     1.2710539E+02     4.3563397E-02    -6.5994473E-01     9.0346299E-06    -9.4585685E+01     3.6473847E-02     1.7957582E+02   
                   8.1194529E-06     9.4327101E+01     2.7268184E-02    -3.3988105E-01     6.4865001E-06    -8.8335137E+01     1.9599385E-02     1.7970642E+02   
                   6.5590598E-06     9.5735189E+01     1.3870189E-02    -2.5975999E-01     1.5501373E-05     7.3160431E+01     9.1467310E-02    -1.7981819E+02   
                   6.2138262E-06    -9.3732975E+01     2.3436772E-01     1.7996610E+02     4.2206972E-06     9.2010099E+01     4.3405977E-02    -1.0880951E-01   
                   2.7924258E-06    -9.4805577E+01     2.0599230E-02     1.7985209E+02     1.1643889E-06     8.1268560E+01     1.2220221E-02    -1.7561399E-01   
                   3.4646177E-02    -1.4075899E+02     6.9776542E-06    -8.7014866E+01     2.4669313E-02     2.4368663E+00     8.0455840E-06     9.3807840E+01   
                   2.1073033E-02    -1.7836103E+02     9.1970091E-06    -9.0645181E+01     1.6489385E-02     1.2581491E+00     5.3622230E-06     8.6146766E+01   
                   1.2363278E-02    -1.7897897E+02     7.3329087E-06    -8.8858178E+01     1.0491375E-01     1.7495125E+02     4.6872456E-06     7.8719535E+01   
                   9.8742142E-02    -4.0399361E-01     7.3130644E-06    -8.7853301E+01     1.5858167E-01     1.2823956E-01     6.4376920E-06     9.1974181E+01   
                   3.1717853E-02    -1.7960838E+02     6.4869607E-06    -8.9423530E+01     1.4980890E-02     5.6039828E-01     5.7587628E-06     9.2439207E+01   
                   4.3243490E-06    -4.8715466E+01     3.0115974E-02     1.7943234E+02     5.6097077E-06     9.5416788E+01     2.7268317E-02    -3.4097259E-01   
                   7.9306469E-06    -8.5935089E+01     2.1921620E-02     1.7975470E+02     6.8650485E-06     8.8974307E+01     1.6769614E-02    -2.0033235E-01   
                   7.1333214E-06    -9.0140768E+01     1.2603466E-02     1.7983964E+02     1.2789546E-05    -9.3412448E+01     3.3221871E-02     2.9859071E-01   
                   3.1374308E-06     8.6436282E+01     8.3028261E-02    -1.7994355E+02     2.9296625E-06    -9.6076801E+01     1.0801724E-01     1.7997434E+02   
                   1.6732588E-06     8.8881792E+01     2.5558622E-02    -7.0918265E-02     7.5576362E-07    -9.6905200E+01     1.2548797E-02     1.7989883E+02   
                   2.0782165E-02     3.9243718E+01     6.5928105E-06     9.0698168E+01     1.7741085E-02    -1.7796619E+02     6.8065594E-06    -8.5032428E+01   
                   1.6489757E-02     1.2586970E+00     7.6136154E-06     8.9714535E+01     1.3649139E-02    -1.7908570E+02     7.6148295E-06    -8.1958223E+01   
                   1.0948911E-02     6.9274905E-01     5.6871250E-06     7.4481456E+01     6.0558584E-02    -5.2454847E+00     4.6302651E-06    -8.5781758E+01   
                   3.5037536E-02     1.7931810E+02     3.5789861E-06     9.4048106E+01     7.5310293E-02    -1.6167653E-01     4.1265138E-06    -9.0766946E+01   
                   7.1340114E-02     1.0423354E-01     4.7616558E-06     9.3282668E+01     1.7995538E-02    -1.7972005E+02     4.0216799E-06    -8.6991039E+01   
                   3.4510008E-06     1.3309974E+02     2.0158570E-02    -5.1622362E-01     4.7557932E-06    -8.7339697E+01     1.9599072E-02     1.7971451E+02   
                   5.8696654E-06     8.8283981E+01     1.6770029E-02    -1.9303615E-01     7.6533916E-06    -9.0821270E+01     1.3712429E-02     1.7985318E+02   
                   6.3087613E-06     8.8191991E+01     1.0811481E-02    -1.1845295E-01     9.3208958E-06     8.6699132E+01     1.5821573E-02    -1.7962076E+02   
                   2.0818823E-06    -9.2690498E+01     2.4254280E-02     1.1753896E-01     2.0041692E-06     8.0423713E+01     6.1883542E-02    -1.7997347E+02   
                   1.1528441E-06    -9.5150616E+01     4.6704371E-02     1.7997647E+02     6.6554673E-07     8.4299837E+01     1.3151502E-02    -6.1214741E-02   
                   1.2597058E-02    -1.4075592E+02     5.4613879E-06    -9.6110546E+01     1.2404065E-02     1.7653873E+00     6.8314896E-06     9.3538091E+01   
                   1.2363514E-02    -1.7897881E+02     7.6465657E-06    -8.5229467E+01     1.0949597E-02     6.9456578E-01     9.0852272E-06     8.9607585E+01   
                   8.8791496E-03    -1.7947903E+02     8.1350822E-06    -8.1809504E+01     3.5697352E-02     1.7460586E+02     2.6795339E-06     8.5218327E+01   
                   1.6515613E-02    -8.7791748E-01     3.3263406E-06    -9.2339441E+01     2.0452769E-02     1.7963964E+02     2.1127447E-06     9.6463871E+01   
                   5.2237706E-02    -8.6282830E-02     2.0952958E-06    -9.0050426E+01     2.9746394E-02     1.0253531E-01     3.6315266E-06     8.8440139E+01   
                   1.4800069E-06    -3.7965973E+01     1.3347009E-02     1.7952974E+02     5.0318263E-06     9.1231701E+01     1.3872959E-02    -2.4696995E-01   
                   6.3419029E-06    -9.0021329E+01     1.2600179E-02     1.7983982E+02     6.8631635E-06     8.9255271E+01     1.0810191E-02    -1.1438024E-01   
                   8.4451606E-06    -9.0132320E+01     9.1274668E-03     1.7988469E+02     4.9666705E-06    -9.3916858E+01     8.1420477E-03     4.6058731E-01   
                   1.4717782E-06     7.2704439E+01     1.0165546E-02    -1.7983525E+02     1.0623819E-06    -9.8003986E+01     1.4024991E-02     7.1986851E-02   
                   1.1292415E-06     9.0757874E+01     4.1700063E-02    -1.7998421E+02     5.9953534E-07    -1.0433554E+02     1.8418954E-02     1.7997367E+02   
                   5.3320690E-01     3.9238188E+01     1.6109036E-05    -9.8785338E+01     1.9841813E-01    -4.6544917E+00     1.5358013E-05     8.3491554E+01   
                   1.0491155E-01     1.7495175E+02     1.1254031E-05    -9.5426518E+01     6.0560139E-02    -5.2459642E+00     9.7377247E-06     8.4621579E+01   
                   3.5695964E-02     1.7460735E+02     6.3108734E-06    -1.1867724E+02     7.4495721E-01    -1.1001174E+01     1.5692121E-05     8.2907751E+01   
                   1.0026331E-01     1.7384960E+02     1.9333017E-05    -9.5901592E+01     5.3897839E-02    -5.8336287E+00     2.5004529E-05     8.8080483E+01   
                   3.3712841E-02     1.7430048E+02     2.3926471E-05    -9.0807212E+01     2.3075732E-02    -5.6185147E+00     2.5257053E-05     8.2254163E+01   
                   7.6324796E-06     1.3776561E+02     4.9757423E-01     1.7993785E+02     6.5747122E-06    -8.6238201E+01     9.1467691E-02    -1.7981756E+02   
                   5.7110364E-06     7.7291651E+01     3.3223577E-02     2.9616753E-01     4.2074637E-06    -8.8129917E+01     1.5823717E-02    -1.7960733E+02   
                   1.8954320E-06     9.6951641E+01     8.1466077E-03     4.7806112E-01     1.8676943E-05     8.8162291E+01     9.7875284E-03     1.8357462E+00   
                   5.8268329E-06    -9.0366949E+01     8.8126167E-03    -1.7902137E+02     2.0467850E-06     7.2075557E+01     6.4982122E-03     7.7421517E-01   
                   7.5230821E-07     2.2500647E+01     4.7540565E-03    -1.7928154E+02     2.8651288E-06    -9.7195912E+01     3.6005420E-03     6.9441925E-01   
                   4.0280887E-02    -1.4076252E+02     7.5987988E-06     9.1391732E+01     3.3438459E-01     2.0826242E-01     4.3907635E-06    -9.6238533E+01   
                   9.8742235E-02    -4.0430267E-01     3.8657094E-06     7.4275090E+01     3.5037659E-02     1.7931768E+02     2.8430550E-06    -7.8499786E+01   
                   1.6515598E-02    -8.7590800E-01     3.0147917E-06     7.9966551E+01     1.0026347E-01     1.7385035E+02     3.1191903E-06    -9.0114291E+01   
                   2.3512502E-02    -1.9797603E+00     5.0393345E-06     9.0403140E+01     1.4571353E-02     1.7837170E+02     5.9363383E-06    -7.7248176E+01   
                   9.8871097E-03    -1.4684069E+00     8.6717940E-06     8.5782705E+01     7.1852834E-03     1.7863720E+02     8.3244720E-06    -9.1979664E+01   
                   8.9392084E-06    -4.9626781E+01     6.0300696E-02    -2.4466335E-01     7.9143518E-06     9.0846225E+01     2.3436710E-01     1.7996598E+02   
                   6.8622989E-06    -9.5645090E+01     8.3031046E-02    -1.7994268E+02     4.4077598E-06     9.2642018E+01     2.4256769E-02     1.1991809E-01   
                   2.4828899E-06    -9.5362928E+01     1.0165978E-02    -1.7982854E+02     2.3691015E-05    -9.5556758E+01     8.8104664E-03    -1.7903426E+02   
                   6.5026317E-06     9.7701153E+01     7.6760736E-03     5.3032688E-01     3.5180279E-06    -9.2522882E+01     5.8513744E-03    -1.7958687E+02   
                   9.8234304E-07     7.0508620E+01     4.4138406E-03     3.5063447E-01     2.0286906E-06     8.4645646E+01     3.4131061E-03    -1.7967661E+02   
                   2.0545323E-02     3.9236422E+01     5.6711506E-06    -9.6151601E+01     4.5580697E-02    -1.7922180E+02     3.1964363E-06     8.0985850E+01   
                   1.5858148E-01     1.2832009E-01     2.7261641E-06    -1.0090611E+02     7.5310799E-02    -1.6169517E-01     2.5231081E-06     6.9601402E+01   
                   2.0452557E-02     1.7964030E+02     2.4522872E-06    -1.2228961E+02     5.3904050E-02    -5.8361463E+00     2.5548435E-06     8.3150190E+01   
                   1.4571160E-02     1.7837155E+02     2.5045175E-06    -1.0655536E+02     9.7239481E-03    -1.2511127E+00     3.5371932E-06     9.0502743E+01   
                   6.8651669E-03     1.7892579E+02     5.1090494E-06    -9.4026907E+01     5.1980451E-03    -9.6080844E-01     4.5587872E-06     8.7982973E+01   
                   9.0747676E-06     1.2864242E+02     2.8149815E-02     1.7969213E+02     7.5828915E-06    -8.3325355E+01     4.3405486E-02    -1.0812008E-01   
                   6.7593953E-06     8.5756980E+01     1.0801351E-01     1.7997399E+02     4.2796866E-06    -9.0295005E+01     6.1886554E-02    -1.7997202E+02   
                   2.8128920E-06     8.3442471E+01     1.4028322E-02     7.2434964E-02     2.7181897E-05     8.3886228E+01     6.4958765E-03     7.7442187E-01   
                   4.6563393E-06    -8.4993561E+01     5.8518877E-03    -1.7958613E+02     4.7094811E-06     8.5656390E+01     4.5551927E-03     3.2947645E-01   
                   3.6399872E-07    -1.1809492E+02     3.5415079E-03    -1.7973344E+02     3.1142576E-06    -8.9412829E+01     2.8386547E-03     2.2930261E-01   
                   1.2554607E-02    -1.4076409E+02     3.7945236E-06     8.4565339E+01     2.0595847E-02     1.0519760E+00     2.8957774E-06    -1.1430044E+02   
                   3.1718503E-02    -1.7960822E+02     3.0853583E-06     9.7125793E+01     7.1339812E-02     1.0434801E-01     1.6954984E-06    -9.4153336E+01   
                   5.2238335E-02    -8.6234955E-02     4.3417653E-07     6.8297349E+01     3.3721177E-02     1.7429790E+02     1.1216096E-06     1.4616856E+02   
                   9.8886491E-03    -1.4670562E+00     1.9715658E-06    -1.5838403E+02     6.8652139E-03     1.7892291E+02     7.7238995E-07     2.3426356E+01   
                   5.2298431E-03    -8.6532450E-01     2.4380182E-06     8.9496381E+01     4.0435441E-03     1.7924761E+02     9.8261074E-07     1.7419521E+02   
                   8.6283228E-06    -4.9801405E+01     1.6417644E-02    -3.4353269E-01     8.5131861E-06     9.4842448E+01     2.0599550E-02     1.7984989E+02   
                   7.6704746E-06    -9.1682104E+01     2.5557593E-02    -6.8622575E-02     4.3232070E-06     9.0863022E+01     4.6703763E-02     1.7997556E+02   
                   2.6800327E-06    -9.5868123E+01     4.1702573E-02    -1.7998277E+02     2.4217483E-05    -9.6757552E+01     4.7488023E-03    -1.7929564E+02   
                   6.4101501E-06     9.3450940E+01     4.4081729E-03     3.5698653E-01     3.7302656E-06    -9.3345430E+01     3.5364242E-03    -1.7972355E+02   
                   6.5713584E-07     1.0726319E+02     2.7073576E-03     2.3055628E-01     2.8569461E-06     8.7191343E+01     2.3229750E-03    -1.7978977E+02   
                   8.4756596E-03     3.9234198E+01     2.3036400E-06    -9.0267644E+01     1.1956069E-02    -1.7877651E+02     1.5383360E-06     7.0666920E+01   
                   1.4982407E-02     5.6230571E-01     8.8385490E-07    -1.4616631E+02     1.7996115E-02    -1.7971960E+02     2.6443575E-06     7.9770112E+01   
                   2.9745742E-02     1.0274465E-01     1.0701308E-06     9.5785229E+01     2.3082337E-02    -5.6211139E+00     4.9304622E-06    -7.8072188E+01   
                   7.1882067E-03     1.7863760E+02     3.1455357E-06     3.7598344E+01     5.1990487E-03    -9.5509211E-01     2.7542018E-06    -1.1582129E+02   
                   4.0424336E-03     1.7923785E+02     3.2939378E-06     9.3864752E+01     4.3893328E-03    -4.7385593E-01     1.9980994E-06    -8.7432966E+01   
                   1.0933081E-05     1.2881519E+02     1.0725445E-02     1.7963046E+02     7.6641958E-06    -8.9574933E+01     1.2217100E-02    -1.8018963E-01   
                   6.9612363E-06     8.9048449E+01     1.2548769E-02     1.7989623E+02     3.7833798E-06    -8.7052301E+01     1.3151330E-02    -6.3086873E-02   
                   1.7047913E-06     1.0998715E+02     1.8415082E-02     1.7997579E+02     2.7534694E-05     9.0830829E+01     3.5960265E-03     6.4845155E-01   
                   8.3631025E-06    -9.2669413E+01     3.4015562E-03    -1.7969478E+02     3.7215080E-06     9.1590610E+01     2.8397107E-03     2.1697373E-01   
                   1.1170693E-06    -1.2195046E+02     2.3234779E-03    -1.7982300E+02     1.7843439E-06    -8.2831745E+01     2.2448158E-03     1.2867265E-01   
  4.5000000E+09     9.9999063E-01     3.6060320E+01     2.0377840E-05    -1.1291213E+02     2.2148251E-01    -2.6968132E+01     2.2437617E-05     6.3941731E+01   
                   1.2059494E-01     1.5303263E+02     1.8431374E-05    -1.1418518E+02     7.0527566E-02    -2.6965802E+01     1.2687877E-05     6.1331993E+01   
                   4.1959850E-02     1.5303535E+02     4.3248895E-06    -4.5855193E+01     1.0868931E+00    -2.6969977E+01     2.2355186E-05     6.0175670E+01   
                   1.2357763E-01     1.5302890E+02     2.8106054E-05    -1.1825816E+02     6.5215211E-02    -2.6971811E+01     2.8474171E-05     6.3869543E+01   
                   4.0444099E-02     1.5302889E+02     3.6151827E-05    -1.1663444E+02     2.7540509E-02    -2.6970411E+01     3.3036706E-05     6.3516454E+01   
                   1.9814149E-05    -1.2943571E+02     5.1716520E-02     1.6387080E+02     1.2227990E-05     9.6622140E+01     4.1411826E-02    -1.0529478E+01   
                   1.0210409E-05    -8.4722240E+01     2.8877659E-02     1.7111137E+02     8.5006292E-06     9.7024275E+01     1.9386473E-02    -7.9810524E+00   
                   6.4507841E-06    -8.7792207E+01     1.2841991E-02     1.7265622E+02     1.0429464E-05    -1.7197701E+02     5.0745565E-01     1.7903881E+02   
                   7.2644367E-06     6.7219794E+01     6.0446015E-02    -3.7670838E+00     5.4111578E-06    -1.2300983E+02     2.8029001E-02     1.7520480E+02   
                   4.1011255E-06     4.0404091E+01     1.6287157E-02    -5.3569872E+00     3.6029507E-06    -1.6459486E+02     1.0610430E-02     1.7426792E+02   
                   2.2147829E-01    -2.6968360E+01     1.0789938E-05     9.6613323E+01     4.9993464E-02    -1.5061593E+02     1.0657918E-05    -7.8313060E+01   
                   3.4054672E-02     2.3094463E+01     8.0110945E-06     1.0093576E+02     2.3134773E-02    -1.6026197E+02     5.8850605E-06    -7.5410957E+01   
                   1.5581973E-02     1.7357730E+01     6.9072279E-06     9.4797152E+01     1.3618641E-01    -6.2104696E+01     9.6588386E-06    -7.0555189E+01   
                   3.4755760E-01     2.2563298E+00     1.0943783E-05     1.0796288E+02     5.0537370E-02    -1.7178517E+02     1.0626521E-05    -7.2644236E+01   
                   2.3602385E-02     1.0937178E+01     1.0738834E-05     1.0958474E+02     1.3995753E-02    -1.6741436E+02     1.1029384E-05    -7.0941022E+01   
                   2.9718551E-05     5.9115917E+01     4.1412277E-02    -1.0529073E+01     1.0758617E-05    -7.0160398E+01     3.5483251E-02     1.7354835E+02   
                   1.0455354E-05     1.0075858E+02     2.6685729E-02    -5.0553662E+00     8.3463903E-06    -8.3449367E+01     1.9236049E-02     1.7576943E+02   
                   8.0274257E-06     9.4149861E+01     1.3639838E-02    -3.6344448E+00     1.7370432E-05     1.2963536E+01     9.3820908E-02    -1.7726054E+02   
                   5.9769327E-06    -1.1876098E+02     2.3659293E-01     1.7949328E+02     4.4220575E-06     5.7965089E+01     4.3546062E-02    -1.6245518E+00   
                   2.9825733E-06    -1.3761561E+02     2.0596407E-02     1.7777052E+02     2.1489037E-06    -3.0078134E-01     1.2191341E-02    -2.6258095E+00   
                   1.2059906E-01     1.5303306E+02     9.8942554E-06    -8.5364153E+01     3.4054902E-02     2.3095616E+01     1.0450445E-05     9.5069509E+01   
                   2.5976071E-02    -1.6373601E+02     8.7104470E-06    -8.7044152E+01     1.9306633E-02     1.2732766E+01     8.2741478E-06     9.4436560E+01   
                   1.4028895E-02    -1.6960071E+02     8.2942351E-06    -8.4860136E+01     7.1921778E-02     1.1432108E+02     7.6734878E-06     1.0161924E+02   
                   9.5838136E-02    -4.4586099E+00     7.8105142E-06    -7.7100757E+01     1.6231285E-01     1.3879300E+00     8.1561233E-06     1.0041978E+02   
                   3.3405470E-02    -1.7581427E+02     8.3016307E-06    -7.7151321E+01     1.6082024E-02     5.9265999E+00     8.2654126E-06     1.0436842E+02   
                   1.1955218E-05    -1.2682109E+02     2.8879044E-02     1.7111076E+02     8.9769244E-06     9.8320279E+01     2.6689228E-02    -5.0539112E+00   
                   9.3292373E-06    -8.4079576E+01     2.1589177E-02     1.7631678E+02     8.5794200E-06     9.0809070E+01     1.6567007E-02    -2.8981525E+00   
                   8.2945566E-06    -8.7018423E+01     1.2471818E-02     1.7765506E+02     7.5952801E-06    -1.6988779E+02     3.4210080E-02     4.4335891E+00   
                   4.0035624E-06     6.2072409E+01     8.4091946E-02    -1.7915890E+02     2.3124500E-06    -1.2032067E+02     1.0868232E-01     1.7961625E+02   
                   1.4281326E-06     4.5097429E+01     2.5624636E-02    -1.0556150E+00     1.0986828E-06    -1.7034947E+02     1.2551536E-02     1.7849749E+02   
                   7.0522399E-02    -2.6965616E+01     7.3955673E-06     9.9536940E+01     2.3135132E-02    -1.6026538E+02     6.6042948E-06    -7.9739011E+01   
                   1.9307638E-02     1.2730909E+01     5.9751921E-06     9.2128057E+01     1.5274731E-02    -1.7062125E+02     7.9306053E-06    -8.5185354E+01   
                   1.1915014E-02     7.1420039E+00     7.2531711E-06     8.9059893E+01     4.1498080E-02    -6.7444990E+01     5.9378951E-06    -8.1433694E+01   
                   3.3069986E-02     1.7243027E+02     5.0219047E-06     9.9367551E+01     7.4614569E-02    -1.7654879E+00     4.8637255E-06    -8.0221714E+01   
                   7.2638205E-02     1.1245779E+00     6.3481646E-06     1.0173032E+02     1.8672777E-02    -1.7701915E+02     6.5351537E-06    -8.0225091E+01   
                   1.6576945E-05     5.9530565E+01     1.9387073E-02    -7.9811732E+00     7.7501145E-06    -7.4445919E+01     1.9239335E-02     1.7577602E+02   
                   7.8482632E-06     9.4606074E+01     1.6567698E-02    -2.8983306E+00     8.4041976E-06    -8.7462673E+01     1.3593783E-02     1.7787284E+02   
                   7.5712109E-06     9.4889093E+01     1.0737760E-02    -1.6438587E+00     9.6082287E-06     1.2241589E+01     1.6366580E-02    -1.7440664E+02   
                   2.3605076E-06    -1.2958421E+02     2.4640126E-02     1.7316056E+00     1.7300807E-06     6.5760837E+01     6.2409325E-02    -1.7959669E+02   
                   1.5174251E-06    -1.2835261E+02     4.6906988E-02     1.7965218E+02     5.9776734E-07     7.4673410E+00     1.3171026E-02    -8.6395914E-01   
                   4.1961906E-02     1.5303342E+02     6.3891564E-06    -9.3936282E+01     1.5582697E-02     1.7360138E+01     9.6465150E-06     9.3914645E+01   
                   1.4029130E-02    -1.6960165E+02     8.9660817E-06    -8.6183003E+01     1.1915723E-02     7.1425066E+00     9.0080473E-06     8.7312709E+01   
                   9.4586405E-03    -1.7464972E+02     1.0364692E-05    -9.2716501E+01     2.4463671E-02     1.1122865E+02     3.0451394E-06     1.2364846E+02   
                   1.5304235E-02    -9.7476834E+00     3.3217502E-06    -7.6320911E+01     1.9840190E-02     1.7604748E+02     4.2565332E-06     1.0206900E+02   
                   5.2064051E-02    -9.3345204E-01     3.4100378E-06    -7.3878555E+01     3.0238693E-02     1.0946312E+00     1.6928177E-06     1.1417855E+02   
                   1.4961471E-05    -1.1515315E+02     1.2849205E-02     1.7266073E+02     6.9891095E-06     1.0393370E+02     1.3642202E-02    -3.6273736E+00   
                   6.9570391E-06    -8.2116448E+01     1.2477174E-02     1.7765878E+02     7.7929452E-06     9.3405673E+01     1.0739840E-02    -1.6403329E+00   
                   1.0260870E-05    -8.9969515E+01     9.0866303E-03     1.7881774E+02     7.9439427E-06    -1.6126179E+02     8.4745039E-03     6.5881313E+00   
                   2.3602952E-06     6.9514173E+01     1.0366125E-02    -1.7749155E+02     1.4359497E-06    -1.3639750E+02     1.4186143E-02     1.0793123E+00   
                   7.7851335E-07     3.9423480E+01     4.1970517E-02    -1.7976261E+02     5.2564560E-07    -1.5523246E+02     1.8468297E-02     1.7962324E+02   
                   1.0868989E+00    -2.6969952E+01     1.1136274E-05    -1.5829375E+02     1.3618697E-01    -6.2104154E+01     1.4688034E-05     7.8813619E+00   
                   7.1919550E-02     1.1432126E+02     7.5137826E-06    -1.6826775E+02     4.1502915E-02    -6.7444968E+01     6.3741312E-06     1.2902357E+01   
                   2.4462655E-02     1.1122762E+02     3.3718497E-06    -6.0355554E+01     9.1021886E-01    -1.3953852E+02     1.3168229E-05     1.9520302E+01   
                   6.9372184E-02     1.0451365E+02     1.6600053E-05    -1.6343305E+02     3.7134375E-02    -7.2635152E+01     1.5152820E-05     1.6567595E+01   
                   2.3187694E-02     1.0857459E+02     2.3023235E-05    -1.5613891E+02     1.5856457E-02    -7.0719107E+01     2.0920118E-05     2.3332502E+01   
                   8.1429286E-06     6.1028543E+01     5.0745410E-01     1.7903892E+02     8.8971243E-06    -9.1077980E+01     9.3818388E-02    -1.7726500E+02   
                   7.5077759E-06     1.0118154E+02     3.4210282E-02     4.4279557E+00     5.6108139E-06    -7.2405601E+01     1.6374943E-02    -1.7440644E+02   
                   2.0273719E-06     7.5746949E+01     8.4824649E-03     6.5907489E+00     2.9770062E-06    -1.4086732E+02     1.0214668E-02     2.9592776E+01   
                   6.1604604E-06    -8.0861134E+01     9.0485027E-03    -1.6491240E+02     2.0382430E-06     1.4783134E+02     6.6512686E-03     1.2038289E+01   
                   1.5216130E-06     4.4332110E+01     4.8628259E-03    -1.6935313E+02     2.8527684E-06    -1.2850398E+02     3.6815328E-03     9.8893701E+00   
                   1.2356783E-01     1.5303152E+02     6.8535630E-06     5.0259002E+01     3.4755632E-01     2.2564097E+00     5.1607693E-06    -7.5474029E+01   
                   9.5837624E-02    -4.4587030E+00     1.4110825E-05     5.8382399E+01     3.3067471E-02     1.7243403E+02     6.7745785E-06    -9.3273071E+01   
                   1.5305071E-02    -9.7456637E+00     1.0528974E-06     5.9962629E+01     6.9367564E-02     1.0451557E+02     1.7545324E-06    -1.2659699E+02   
                   2.0223182E-02    -2.2184720E+01     5.7719223E-06     7.0798681E+01     1.2793717E-02     1.6164202E+02     9.2585864E-06    -1.0930248E+02   
                   8.7695649E-03    -1.6555796E+01     8.1822994E-06     7.9116293E+01     6.4175040E-03     1.6462568E+02     5.1772166E-06    -1.0923846E+02   
                   5.1168101E-05    -1.1061053E+02     6.0447269E-02    -3.7686215E+00     8.9862985E-06     1.2238664E+02     2.3658786E-01     1.7949074E+02   
                   9.2019320E-06    -7.0222735E+01     8.4097617E-02    -1.7915403E+02     5.4442010E-06     9.0516377E+01     2.4637287E-02     1.7230355E+00   
                   4.1853336E-06    -6.0540841E+01     1.0369117E-02    -1.7749114E+02     3.2593095E-05    -1.5563748E+02     9.0420620E-03    -1.6491047E+02   
                   5.6770618E-06     7.3667687E+01     7.8384547E-03     8.0502429E+00     4.1349124E-06    -9.1178332E+01     5.9593866E-03    -1.7375886E+02   
                   1.6673046E-06     4.0909526E+01     4.4800980E-03     5.4058654E+00     2.7252968E-06     8.1380761E+01     3.4651489E-03    -1.7515996E+02   
                   6.5239796E-02    -2.6978196E+01     5.0007048E-06    -1.0627057E+02     5.0539455E-02    -1.7178289E+02     6.4924808E-06     6.2590273E+01   
                   1.6231299E-01     1.3881480E+00     4.7671034E-06     1.5231663E+01     7.4616384E-02    -1.7676337E+00     3.4877996E-06    -1.1842343E+02   
                   1.9840010E-02     1.7604652E+02     3.0003946E-06     1.1283841E+02     3.7143561E-02    -7.2642547E+01     5.5290385E-06     1.0808203E+02   
                   1.2795437E-02     1.6163356E+02     1.9616461E-06    -7.6172149E+01     8.7567973E-03    -1.4062689E+01     2.3621662E-06     1.2413477E+02   
                   6.2578689E-03     1.6783179E+02     3.0149517E-06    -1.3314549E+02     4.7798660E-03    -1.0833790E+01     3.8608167E-06     6.3478329E+01   
                   1.3256746E-05     6.7879120E+01     2.8026156E-02     1.7520564E+02     1.6172724E-05    -8.0282530E+01     4.3548222E-02    -1.6100172E+00   
                   8.1341186E-06     9.2491151E+01     1.0868558E-01     1.7962358E+02     5.4470491E-06    -7.5454539E+01     6.2414778E-02    -1.7959016E+02   
                   4.5841982E-06     6.8817275E+01     1.4173223E-02     1.0897050E+00     6.8463761E-06     6.1310125E+01     6.6491661E-03     1.2019303E+01   
                   8.4020683E-06    -1.1447308E+02     5.9595498E-03    -1.7379269E+02     3.5244885E-06     9.1779713E+01     4.6226850E-03     4.7369750E+00   
                   9.5068723E-07     3.7442204E+01     3.5879268E-03    -1.7603873E+02     2.9793714E-06    -9.2368546E+01     2.8743355E-03     3.4348605E+00   
                   4.0430560E-02     1.5304495E+02     3.2680879E-06     1.5170364E+01     2.3603460E-02     1.0931077E+01     6.8334797E-07     1.0779492E+02   
                   3.3407191E-02    -1.7581426E+02     6.9777181E-06     2.2203251E+01     7.2639013E-02     1.1236320E+00     7.3025504E-06    -1.1259975E+02   
                   5.2064548E-02    -9.3245010E-01     6.8762669E-06     9.5776326E+01     2.3184958E-02     1.0858794E+02     6.5362587E-06     7.8574098E+01   
                   8.7690547E-03    -1.6560289E+01     1.4726992E-06    -8.3707543E+01     6.2571999E-03     1.6783228E+02     3.0936345E-06    -1.5079890E+02   