! S-parameter export from POSTFEKO
! Filename: circular_5wg_5modes_V2
! Creation date: 2020-01-17 15:21:17
! 
# Hz S MA R    5.0000000E+01 
  4.0000000E+09     3.8713478E-01    -1.7949332E+02     3.2510774E-06     5.0153000E+01     1.4380973E-01     9.7118220E+01     2.7619761E-06    -1.3782341E+02   
                   9.2161448E-02    -7.8653114E+01     1.2074997E-04    -1.0334768E+01     1.8000876E-06     4.7485145E+01     9.0936136E-05     1.5129784E+02   
                   2.1445259E-06    -1.3449546E+02     6.1981069E-05    -3.0097833E+01   
                   4.2050769E-06     4.2821647E+01     1.3436060E-01     4.1663712E+01     7.1220496E-07    -5.8001374E+01     7.9212206E-02    -1.4505609E+02   
                   2.1772060E-06     1.1218990E+02     1.4842633E-06    -2.2119033E+01     7.6732951E-05     1.1698867E+02     9.7861444E-07     7.0575172E+01   
                   5.5062491E-05    -6.6051128E+01     1.2692079E-06    -1.2703079E+02   
                   1.4380839E-01     9.7118735E+01     4.7760638E-07    -1.0338614E+02     4.6040578E-02    -4.1319461E+01     1.9165496E-06    -7.5779176E+01   
                   3.5449209E-02     1.4571345E+02     2.6110374E-05    -1.7553580E+02     4.5383532E-07    -1.2704808E+02     2.1463209E-05    -2.5129550E+01   
                   5.4999569E-07     4.5593169E+01     1.4933436E-05     1.5340495E+02   
                   2.0771144E-06    -1.4623320E+02     7.9212922E-02    -1.4505672E+02     5.0608074E-07    -8.1284369E+01     5.1511844E-02     2.6911969E+01   
                   1.3103986E-06    -5.9196171E+01     7.9774405E-07     1.6482096E+02     4.0543375E-05    -5.8912897E+01     5.1887045E-07    -1.0153150E+02   
                   2.8993717E-05     1.1775389E+02     6.5786418E-07     5.8980841E+01   
                   9.2160468E-02    -7.8652324E+01     3.3396026E-06     1.1370814E+02     3.5449063E-02     1.4571385E+02     1.0685068E-06     2.4633722E+01   
                   2.9369764E-02    -2.6637972E+01     1.2253360E-05     1.2860554E+01     2.6498212E-07     4.3560675E+01     1.3021992E-05     1.5583444E+02   
                   3.7107835E-07    -1.3698099E+02     9.1689315E-06    -2.5600470E+01   
                   1.2114986E-04    -1.0960992E+01     1.8028476E-06    -3.6230889E+01     2.5972377E-05    -1.7616652E+02     1.0173851E-06     1.3930023E+02   
                   1.2056036E-05     1.1914663E+01     5.9537627E-02    -1.9110943E-03     1.1877249E-05     9.2424800E+01     5.4453249E-02     1.7999858E+02   
                   1.6282261E-05    -9.2015474E+01     3.0194615E-02    -1.7919648E-03   
                   2.0807222E-06     4.9561770E+01     7.6378551E-05     1.1684815E+02     6.0400951E-07    -1.2837363E+02     4.0249222E-05    -5.9184403E+01   
                   3.0762142E-07     4.0472733E+01     1.4373560E-05     8.6128077E+01     1.0672565E-02     2.5320060E-03     4.1595515E-06    -9.4267419E+01   
                   9.6672306E-03     1.7999700E+02     2.0738763E-06     9.3686945E+01   
                   9.1113923E-05     1.5114418E+02     9.8203477E-07     6.0113243E+01     2.1405985E-05    -2.5427524E+01     3.5392304E-07    -1.3264602E+02   
                   1.3042837E-05     1.5566240E+02     5.4453497E-02     1.7999878E+02     4.6522340E-06    -8.4073854E+01     2.1558698E-02    -2.3148019E-03   
                   5.9153227E-06     8.6093062E+01     1.3509798E-02     1.7999798E+02   
                   1.9196164E-06    -1.3399644E+02     5.4473287E-05    -6.6039353E+01     4.8546849E-07     4.9581670E+01     2.8653812E-05     1.1821672E+02   
                   3.6662811E-07    -1.3460701E+02     1.3674362E-05    -9.1879427E+01     9.6659857E-03     1.7999883E+02     6.0074752E-06     9.1636877E+01   
                   8.1939745E-03    -8.3643456E-04     3.0269655E-06    -8.7401760E+01   
                   6.1762843E-05    -3.0149849E+01     1.3013039E-06    -1.3169108E+02     1.4850927E-05     1.5359331E+02     7.9985863E-07     6.1088792E+01   
                   9.1510312E-06    -2.5565384E+01     3.0195663E-02    -1.8243350E-03     1.3613107E-06     8.3458336E+01     1.3508734E-02     1.7999632E+02   
                   1.3844596E-06    -1.0205749E+02     9.1401407E-03     3.7073332E-04   
  4.5000000E+09     1.6604915E-01    -1.7345193E+02     2.3972164E-06     3.9422933E+01     1.3801207E-01     8.7850572E+01     2.3787974E-06    -1.6404933E+02   
                   8.7257196E-02    -8.6685295E+01     1.0053324E-04    -3.6174161E+01     1.6787866E-06     1.6829655E+01     7.8282813E-05     1.2243550E+02   
                   1.8699147E-06    -1.6494063E+02     5.2827410E-05    -5.9101118E+01   
                   5.0729468E-06     4.9617085E+01     1.4652959E-01     4.2642687E+01     1.0481251E-06    -5.5253561E+01     8.2974067E-02    -1.4478214E+02   
                   8.0770958E-07     1.2576973E+02     2.7283031E-06    -2.0631484E+01     7.7536516E-05     9.7853444E+01     6.9401362E-07     6.5865862E+01   
                   5.5720188E-05    -8.6328910E+01     9.1976874E-07    -1.4537024E+02   
                   1.3801127E-01     8.7850894E+01     1.4963369E-06    -5.3604808E+01     5.1879169E-02    -2.9111362E+01     5.2659074E-07    -9.2802322E+01   
                   3.9311568E-02     1.5566496E+02     2.1730621E-05    -1.6941126E+02     4.3703736E-07    -1.4077789E+02     1.7468475E-05    -2.8111668E+01   
                   4.2711088E-07     3.0193173E+01     1.2107300E-05     1.5008353E+02   
                   3.5354727E-06    -1.3324018E+02     8.2974083E-02    -1.4478133E+02     1.0491999E-06     9.6455463E+01     5.2420910E-02     2.6721630E+01   
                   4.1369216E-07    -4.9794763E+01     1.4145433E-06     1.6506389E+02     3.9496297E-05    -7.6509312E+01     3.6851302E-07    -1.0672478E+02   
                   2.8356600E-05     9.8931748E+01     4.6999667E-07     4.1634160E+01   
                   8.7253962E-02    -8.6685042E+01     1.5960392E-06     1.0729455E+02     3.9311520E-02     1.5566482E+02     7.3665831E-07    -8.5216299E+01   
                   3.1968311E-02    -1.9139797E+01     8.9233692E-06     3.3978681E+01     3.1463978E-07     2.9308878E+01     9.7257538E-06     1.5400945E+02   
                   2.5612359E-07    -1.4284082E+02     6.9312735E-06    -2.7957320E+01   
                   1.0142654E-04    -3.6919295E+01     2.4871067E-06    -2.2796844E+01     2.1649464E-05    -1.6976341E+02     1.3164175E-06     1.5286068E+02   
                   8.7383542E-06     3.3445027E+01     2.6795451E-01    -1.7999913E+02     1.6199529E-05     9.4829168E+01     7.3536987E-02     1.7999807E+02   
                   2.3135409E-05    -8.6571760E+01     4.0020153E-02    -2.8469233E-03   
                   1.7643591E-06     2.0146368E+01     7.7311163E-05     9.7802099E+01     4.3692158E-07    -1.5545452E+02     3.9398266E-05    -7.6686968E+01   
                   2.3349806E-07     3.5391617E+01     1.6745454E-05     9.4049702E+01     2.2203134E-03     6.2777512E-04     6.0531822E-06    -9.2058659E+01   
                   6.3567179E-03     1.7999689E+02     7.0267390E-07     1.0592210E+02   
                   7.8420469E-05     1.2233634E+02     6.3008100E-07     6.7005557E+01     1.7551250E-05    -2.7885299E+01     4.0377062E-07    -9.5439837E+01   
                   9.7118580E-06     1.5374625E+02     7.3539854E-02     1.7999867E+02     4.9148365E-06    -8.9633496E+01     2.7223202E-02    -2.4750455E-03   
                   8.1203767E-06     9.2892722E+01     1.6470844E-02     1.7999653E+02   
                   1.8157609E-06    -1.6318862E+02     5.5316680E-05    -8.6183623E+01     3.5909132E-07     1.9337763E+01     2.8296342E-05     9.9269211E+01   
                   3.1089975E-07    -1.4310234E+02     1.9637721E-05    -9.2104390E+01     6.3574164E-03     1.7999744E+02     8.7534381E-06     8.7346926E+01   
                   6.8635543E-03     1.1493299E-02     3.7884911E-06    -8.8667418E+01   
                   5.2936337E-05    -5.8993209E+01     9.1312728E-07    -1.4587600E+02     1.2037142E-05     1.4937553E+02     4.7037762E-07     3.7722622E+01   
                   6.8632648E-06    -2.7954196E+01     4.0021775E-02    -1.6009253E-03     2.4446376E-06     1.0077923E+02     1.6471662E-02     1.7999634E+02   
                   2.6777469E-06    -9.1860272E+01     1.0692606E-02    -2.1372794E-03   
  5.0000000E+09     9.7579047E-02    -1.6728563E+02     4.6940726E-06     2.9570606E+01     1.2516933E-01     7.9606715E+01     1.5080533E-06     1.1058558E+02   
                   7.8036322E-02    -9.3418889E+01     9.0467588E-05    -9.7535327E+01     4.4555695E-06    -2.8287440E+01     5.3504877E-05     8.8488536E+01   
                   1.5938351E-06    -9.0209675E+01     3.7176977E-05    -9.1337534E+01   
                   4.8592603E-06     4.4422035E+00     1.6372855E-01     4.1355293E+01     2.4456141E-06    -9.7877168E+01     8.8459162E-02    -1.4645094E+02   
                   3.7345741E-07    -1.4860489E+02     1.1274035E-05    -1.0837387E+02     7.2419684E-05     6.4475512E+01     2.1947747E-07     8.8593751E+01   
                   5.5336798E-05    -1.1701030E+02     1.2275223E-06    -1.5093312E+02   
                   1.2516929E-01     7.9606795E+01     1.3200014E-06    -8.4225703E+01     5.8487261E-02    -2.4923925E+01     1.2214787E-06     1.1300621E+02   
                   4.3168371E-02     1.5904790E+02     2.3560174E-05     1.4136720E+02     3.6388376E-06    -3.7932996E+01     1.5350916E-05    -4.8399336E+01   
                   2.2284986E-06     9.9052664E+01     1.0292035E-05     1.3570915E+02   
                   3.6066907E-06     1.7569913E+02     8.8460305E-02    -1.4645121E+02     4.8215138E-07     7.4128255E+01     5.4061694E-02     2.5155214E+01   
                   1.1190838E-06     2.5003706E+01     1.0657726E-05    -1.3710133E+02     3.5987908E-05    -1.0047397E+02     4.0321175E-07    -1.2530303E+02   
                   2.2180987E-05     8.1516691E+01     2.9282029E-07     1.6541388E+00   
                   7.8032375E-02    -9.3418494E+01     4.9199688E-07     1.1398163E+02     4.3168820E-02     1.5904493E+02     1.0545873E-06    -1.2307145E+02   
                   3.4237027E-02    -1.6614254E+01     9.7852052E-06     6.7527838E+01     5.1361086E-06    -2.1465254E+01     7.3889998E-06     1.3588775E+02   
                   4.5659044E-06     1.4356196E+02     6.0318508E-06    -4.3469396E+01   
                   8.9303641E-05    -9.8481321E+01     4.9255095E-06    -7.7826951E+01     2.4325377E-05     1.4441215E+02     3.3383842E-06     1.1415397E+02   
                   7.3035468E-06     2.4588256E+01     9.9998555E-01     1.0225616E+01     3.1777115E-05     5.0704425E+01     1.2943196E-01     1.4011096E+02   
                   3.6211158E-05    -1.2935719E+02     6.8786572E-02    -3.9889254E+01   
                   1.4400191E-06     1.3446517E+00     7.1462008E-05     6.6656399E+01     2.4314222E-07    -1.6025378E+02     3.5013900E-05    -1.0488591E+02   
                   1.0615692E-07     1.9675281E+00     3.2948073E-05     5.1305267E+01     1.1473748E-02     6.6434630E+01     6.6517133E-06    -8.9040824E+01   
                   9.3410550E-03    -1.5087687E+02     3.0649371E-06     1.1762766E+02   
                   5.3922210E-05     8.7830088E+01     6.0358848E-07     3.0963853E+01     1.4800414E-05    -4.6883707E+01     2.0963191E-07    -9.3610306E+01   
                   8.1909452E-06     1.4084857E+02     1.2943410E-01     1.4011135E+02     5.9645041E-06    -9.3834532E+01     2.3485637E-02    -2.0898071E+01   
                   7.4188466E-06     8.2353904E+01     1.4173359E-02     1.6169128E+02   
                   1.7606034E-06     1.6673903E+02     5.2517479E-05    -1.1555613E+02     6.8833453E-07     4.0961128E+01     2.5685797E-05     7.1986828E+01   
                   4.6849526E-07    -1.3900486E+02     3.8041619E-05    -1.2880840E+02     9.3398781E-03    -1.5086982E+02     7.6603264E-06     7.6850994E+01   
                   8.1229443E-03     1.4005216E+01     3.5178106E-06    -9.4000768E+01   
                   3.6914237E-05    -9.2033364E+01     1.0262975E-06     1.6841868E+02     1.0354069E-05     1.3295212E+02     8.5009831E-07     1.6608647E+01   
                   5.6442661E-06    -3.9234801E+01     6.8792797E-02    -3.9889071E+01     4.0363818E-06     1.1319280E+02     1.4173956E-02     1.6169212E+02   
                   3.8170435E-06    -8.7662810E+01     9.2915256E-03    -1.4754278E+01   
  5.5000000E+09     6.2325320E-02    -1.5946060E+02     3.7470749E-06     2.9347141E+01     1.1334034E-01     7.1881443E+01     1.2959689E-06    -1.6435317E+02   
                   6.9660712E-02    -9.9339958E+01     2.2973926E-05    -1.3970173E+02     4.8872968E-07    -5.0008701E+01     3.6059431E-05     6.7653454E+01   
                   2.8679459E-06     1.5995047E+02     2.5161058E-05    -1.1119382E+02   
                   4.4729926E-06     4.0106366E+01     1.8557453E-01     4.0726054E+01     1.4094153E-06     2.8833054E+01     9.3803986E-02    -1.4765953E+02   
                   8.5150334E-07     1.5488186E+02     1.3079348E-05    -1.0729815E+02     5.4822508E-05     4.6370269E+01     7.9480252E-07    -1.6795020E+01   
                   4.6679976E-05    -1.3542392E+02     6.6150215E-07     1.6247727E+02   
                   1.1333935E-01     7.1880922E+01     4.9821556E-07    -8.7162313E+01     6.6506883E-02    -2.3722715E+01     4.8705805E-07    -9.8240181E+00   
                   4.7544604E-02     1.6001145E+02     1.0950055E-05     7.6365758E+01     1.4949389E-06    -1.6447769E+02     1.2229742E-05    -5.8173337E+01   
                   7.8657120E-07     1.2509057E+02     9.1048591E-06     1.2013148E+02   
                   1.1952779E-06    -1.7979002E+02     9.3806636E-02    -1.4766005E+02     1.8645931E-06    -2.0157482E+01     5.4982308E-02     2.3849536E+01   
                   9.5168258E-07     6.1581983E+01     3.8774754E-06    -1.7191091E+02     2.9805255E-05    -1.2753634E+02     1.0496540E-06    -1.7726783E+02   
                   2.3473186E-05     5.2553625E+01     1.7500630E-07     5.3701797E+01   
                   6.9659623E-02    -9.9339154E+01     3.0595579E-07    -1.2167669E+02     4.7543678E-02     1.6001132E+02     6.7307920E-07    -1.0465436E+02   
                   3.6625317E-02    -1.5911236E+01     4.3399226E-06     9.0862399E+01     2.0230773E-06     9.4955976E+01     6.9122186E-06     1.3336179E+02   
                   5.3617694E-07    -1.0567542E+02     5.2721731E-06    -4.5434495E+01   
                   2.7049550E-05    -1.4882536E+02     6.4502535E-06    -1.2079027E+02     1.0166423E-05     9.1491520E+01     4.1592445E-06     8.0212341E+01   
                   5.8587000E-06     8.8231925E+01     9.9998694E-01    -4.3607311E+01     2.7207681E-05     2.4532793E+01     1.1568356E-01     1.1319440E+02   
                   3.3246038E-05    -1.5502613E+02     5.9630268E-02    -6.6805564E+01   
                   1.2629109E-06    -1.5307586E+01     5.9026777E-05     4.7005198E+01     6.6759973E-07    -1.4050867E+02     2.7560223E-05    -1.2130891E+02   
                   2.5809542E-07     6.1796097E+01     3.1560730E-05     2.2736026E+01     9.9757337E-03     7.5167688E+01     6.6888078E-06    -8.9336365E+01   
                   9.2740062E-03    -1.5447485E+02     3.0680139E-06     1.1015988E+02   
                   3.6096589E-05     6.7118013E+01     7.4126661E-08     4.4185423E+01     1.2648113E-05    -5.8391258E+01     1.2328269E-07     1.3542356E+02   
                   6.9447372E-06     1.3281429E+02     1.1568794E-01     1.1319432E+02     6.2188147E-06    -8.7372670E+01     2.1340231E-02    -1.8277424E+01   
                   6.6262504E-06     8.2890844E+01     1.2911945E-02     1.6450266E+02   
                   1.5882765E-06     1.2332101E+02     4.6731106E-05    -1.3400860E+02     4.0759908E-07     8.8041890E+00     2.1770468E-05     5.5352247E+01   
                   3.9887461E-07     1.7446249E+02     3.6237259E-05    -1.5587368E+02     9.2722231E-03    -1.5446500E+02     7.9582200E-06     8.1364980E+01   
                   8.4047690E-03     1.1370266E+01     4.9657318E-06    -9.5312672E+01   
                   2.5043634E-05    -1.1042524E+02     1.0122689E-06     1.7623758E+02     9.4313035E-06     1.2260596E+02     8.8936580E-07     9.7055281E+00   
                   5.1407081E-06    -4.4539959E+01     5.9635063E-02    -6.6805708E+01     4.2159765E-06     1.1093162E+02     1.2911832E-02     1.6450230E+02   
                   3.5889404E-06    -9.5159579E+01     8.5796984E-03    -1.1963206E+01   
  6.0000000E+09     4.2070373E-02    -1.4808652E+02     2.1523223E-06     4.9577006E+01     1.0291826E-01     6.4315058E+01     1.3412958E-06    -1.5601145E+02   
                   6.2341728E-02    -1.0476111E+02     4.6267901E-06     1.7009311E+01     1.2715705E-05    -4.3583733E+01     2.4343169E-05     5.4124699E+01   
                   8.8990112E-06    -2.6087084E+01     1.6217923E-05    -1.2656071E+02   
                   2.8163175E-06     2.1463117E+01     2.1929502E-01     4.0125014E+01     3.2651958E-06     6.4008207E+01     1.0073634E-01    -1.4846892E+02   
                   8.8619133E-07     1.5303512E+02     4.7836481E-06     1.7852837E+02     5.0396384E-05     3.7611326E+01     1.7552696E-06     1.3682566E+02   
                   4.6060571E-05    -1.5047691E+02     1.1746200E-06     1.4626336E+02   
                   1.0291559E-01     6.4315697E+01     1.4359585E-06    -8.8550171E+01     7.6295343E-02    -2.4524096E+01     4.3143585E-07     2.8625341E+00   
                   5.2560777E-02     1.5938275E+02     1.3961435E-05    -3.5216857E+01     7.1788968E-06    -1.0885456E+01     1.2349245E-05    -7.0612618E+01   
                   6.9069178E-06     2.6165573E+01     8.0410791E-06     1.1023114E+02   
                   1.5784147E-06     1.7829699E+02     1.0073848E-01    -1.4846981E+02     1.2575757E-06    -4.9014832E+01     5.5704240E-02     2.3058604E+01   
                   2.9605412E-07     2.6777721E+01     5.7800625E-06     7.0813672E+01     1.2973752E-05    -1.5602182E+02     3.4984605E-06     1.0506710E+02   
                   9.5518216E-06     6.8523459E+01     8.8232428E-07     1.6620032E+02   
                   6.2339964E-02    -1.0475981E+02     3.3330048E-07     7.8533853E+01     5.2559961E-02     1.5938363E+02     1.2774606E-06     1.2689547E+02   
                   3.9180147E-02    -1.6382636E+01     1.5275222E-05     9.8328477E+01     7.0039388E-06    -1.6610372E+02     6.8455807E-06     1.3055068E+02   
                   6.1028023E-06    -1.7281871E+02     5.0091248E-06    -5.6237791E+01   
                   5.2074252E-06     4.8944123E+01     8.2304842E-06    -1.4873042E+02     9.8766532E-06    -2.2196875E+01     3.3610058E-06     4.0987573E+01   
                   1.3441742E-05     1.0182690E+02     9.9998927E-01    -8.3449136E+01     2.5828182E-05     4.5884215E+00     1.0329936E-01     9.3273887E+01   
                   3.0014989E-05    -1.7594088E+02     5.1149152E-02    -8.6726295E+01   
                   6.5826394E-07    -2.1022743E+01     4.8631927E-05     3.1080009E+01     4.9137050E-07     1.5847000E+02     2.1046326E-05    -1.3367135E+02   
                   3.1713569E-07     9.0033369E+00     2.5919059E-05     3.2687869E+00     9.7235398E-03     1.1978634E+02     6.4073029E-06    -8.9850106E+01   
                   7.7933821E-03    -1.5486991E+02     3.6018816E-06     1.0663017E+02   
                   2.4693089E-05     4.9855123E+01     8.4718816E-07     8.7986556E+01     1.1999327E-05    -6.8680910E+01     1.5960941E-07     3.3894579E+01   
                   6.4948732E-06     1.1937145E+02     1.0330045E-01     9.3274069E+01     7.8188161E-06    -9.3990119E+01     2.1234455E-02    -1.4554931E+01   
                   7.9451154E-06     8.8695302E+01     1.2750797E-02     1.6803879E+02   
                   5.1028741E-07     1.7477003E+02     4.2210515E-05    -1.5236792E+02     5.8639312E-07     2.1879561E+01     1.8718268E-05     4.0641589E+01   
                   1.2706128E-07     1.7607474E+02     3.2845061E-05    -1.7698013E+02     7.7923511E-03    -1.5486134E+02     9.2436524E-06     8.0373514E+01   
                   8.1850850E-03     9.1329786E+00     5.1713915E-06    -8.7764126E+01   
                   1.8349660E-05    -1.2845084E+02     3.6089466E-07     1.1560714E+02     8.7031457E-06     1.1284626E+02     1.5765683E-07     6.9944137E+01   
                   4.8274499E-06    -5.5253954E+01     5.1152784E-02    -8.6727708E+01     4.4605989E-06     1.1481508E+02     1.2750519E-02     1.6803818E+02   
                   4.4112402E-06    -8.7427254E+01     8.4627800E-03    -8.8970305E+00   
  6.5000000E+09     3.0240868E-02    -1.3278998E+02     3.2736924E-06     1.5278251E+01     9.3567274E-02     5.6632635E+01     2.3339575E-06     1.7119073E+02   
                   5.5827438E-02    -1.0986812E+02     2.0966610E-05    -6.4630513E-01     3.0395357E-06     1.7923575E+02     1.7533137E-05     3.7898315E+01   
                   4.1743451E-06    -3.1337391E+01     1.2303443E-05    -1.4044020E+02   
                   4.4286634E-06     3.9425581E+01     2.7187403E-01     3.7873055E+01     5.2141464E-07     1.3048094E+02     1.0991152E-01    -1.5003137E+02   
                   1.8435654E-06     1.0630067E+02     4.8509043E-06     1.4404965E+02     4.1213636E-05     2.1860683E+01     9.1512154E-07     3.7616277E+01   
                   4.2538355E-05    -1.6365736E+02     3.3894393E-07    -6.3192269E+01   
                   9.3566790E-02     5.6631427E+01     7.5074775E-07    -8.4881511E+01     8.8224927E-02    -2.6948683E+01     1.0297353E-06     7.9015932E+01   
                   5.8274339E-02     1.5749020E+02     2.3249562E-05    -7.8245419E+01     4.2469124E-06    -1.2103975E+02     1.1199268E-05    -8.2435909E+01   
                   3.8744216E-06     2.6245441E+01     8.1473140E-06     1.0294553E+02   
                   1.8873416E-06    -1.5063419E+02     1.0991196E-01    -1.5003226E+02     9.1138471E-07     6.6935599E+01     5.6377094E-02     2.2188456E+01   
                   9.9715936E-07     3.9730060E+01     3.9050417E-06    -6.2571663E+01     7.9896909E-06    -1.3757788E+02     1.1077833E-06    -9.1124950E+01   
                   1.1029787E-05     3.6009669E+01     7.1816393E-07    -1.0199810E+02   
                   5.5826778E-02    -1.0986857E+02     1.4404513E-06     9.4289607E+01     5.8272786E-02     1.5749055E+02     1.1452920E-06     8.0128510E+01   
                   4.1886495E-02    -1.7758752E+01     2.3635786E-05     8.4138469E+01     4.0415257E-06    -1.3322435E+02     6.8094686E-06     1.1134979E+02   
                   5.0649759E-07     1.6266452E+02     4.7751894E-06    -6.4362704E+01   
                   1.7964427E-05     1.4658055E-01     4.6466254E-06    -1.7950819E+02     2.4705384E-05    -8.0501254E+01     3.4326637E-06     1.8131745E+01   
                   2.4363896E-05     8.5708510E+01     9.9999231E-01    -1.1908633E+02     1.8142056E-05    -1.1130548E+01     9.1527693E-02     7.5454709E+01   
                   2.7560863E-05     1.6507375E+02     4.2905324E-02    -1.0454599E+02   
                   1.3405234E-06    -1.1986034E+02     3.6694936E-05     1.6938223E+01     1.5820792E-07    -5.0441208E+01     1.4861535E-05    -1.3917485E+02   
                   8.0767606E-07    -7.0018682E+01     2.1398485E-05    -1.0958784E+01     2.1519144E-02     1.6156088E+02     7.7013830E-06    -8.9289339E+01   
                   4.7175044E-03    -1.4832093E+02     3.9147881E-06     9.8364997E+01   
                   1.7764957E-05     3.2062023E+01     2.6215680E-06    -3.4460202E+00     1.2113106E-05    -8.2646597E+01     1.0634546E-07    -6.0798638E+01   
                   6.6318289E-06     1.0747428E+02     9.1528348E-02     7.5454918E+01     7.2451554E-06    -1.0101054E+02     2.2208025E-02    -1.0873884E+01   
                   8.2976227E-06     8.3433837E+01     1.3130780E-02     1.7139746E+02   
                   1.7706882E-06     1.0418766E+02     3.7205193E-05    -1.6747928E+02     5.2679140E-07    -1.3486590E+02     1.5762832E-05     2.7444135E+01   
                   8.8263257E-07    -9.8858663E+01     2.6273756E-05     1.6564967E+02     4.7145901E-03    -1.4833409E+02     9.3519260E-06     8.4425717E+01   
                   7.5480875E-03     6.8571572E+00     5.4043818E-06    -8.7806731E+01   
                   1.0733612E-05    -1.3833674E+02     1.2180786E-06    -1.7922424E+02     8.8559886E-06     1.0471333E+02     3.8944746E-07    -1.1494900E+01   
                   4.6047114E-06    -6.4277094E+01     4.2907732E-02    -1.0454534E+02     4.5577208E-06     1.0615475E+02     1.3131066E-02     1.7139534E+02   
                   3.9246260E-06    -9.2124275E+01     8.6198903E-03    -6.1328491E+00   
  7.0000000E+09     2.3259600E-02    -1.1312782E+02     3.8169631E-06     2.6408629E+01     8.4860177E-02     4.8612232E+01     2.4726897E-06    -1.6681049E+02   
                   4.9833809E-02    -1.1472217E+02     2.5463744E-05    -2.6546581E+01     3.4642744E-06     1.4266329E+02     1.1938411E-05     2.7063543E+01   
                   2.0249665E-06     2.4981999E+01     8.6470179E-06    -1.4784104E+02   
                   4.3040365E-06     3.0337051E+01     3.5259954E-01     3.2873742E+01     1.2371835E-06    -8.3579282E+01     1.1975803E-01    -1.5334460E+02   
                   1.0237685E-06     1.6535138E+02     2.9131310E-06     1.2662152E+02     2.1526397E-05     1.8475134E+01     6.4935043E-07     5.8538022E+01   
                   3.4731125E-05    -1.7635418E+02     8.0201556E-07    -6.2996980E+01   
                   8.4857266E-02     4.8613099E+01     8.0435350E-07    -1.0460532E+02     1.0280625E-01    -3.0816765E+01     4.4429079E-07     6.3026978E+00   
                   6.4739411E-02     1.5450588E+02     4.1275146E-05    -1.1418528E+02     2.4053509E-06     1.3417555E+02     1.2279042E-05    -9.6382783E+01   
                   2.2448883E-06    -1.6460071E+01     8.0780073E-06     8.7984272E+01   
                   2.2520922E-06    -1.5528371E+02     1.1976019E-01    -1.5334573E+02     6.7450196E-07     1.3792245E+02     5.6255325E-02     2.0648047E+01   
                   7.7513926E-07     2.0194811E+00     9.5324723E-07    -4.5511442E+01     6.3305489E-06    -1.1652880E+02     5.8424249E-07    -1.2379617E+02   
                   1.2247976E-05     2.1481214E+01     5.6512233E-07    -1.3345527E+02   
                   4.9833094E-02    -1.1472245E+02     1.5141267E-06     8.2091006E+01     6.4737336E-02     1.5450611E+02     1.0033046E-06    -6.5879973E+01   
                   4.4702179E-02    -1.9882361E+01     3.5925177E-05     6.1464792E+01     8.2478950E-07    -6.4508594E-03     6.5233179E-06     1.0152297E+02   
                   1.6254809E-06    -3.0851578E+01     4.7785419E-06    -7.4002951E+01   
                   2.2690204E-05    -2.4722436E+01     5.3723272E-06     1.5385100E+02     4.1469542E-05    -1.1354828E+02     1.4809131E-06    -9.1973449E+01   
                   3.6184407E-05     6.2678123E+01     9.9999474E-01    -1.5360565E+02     1.3277325E-05    -3.0352025E+01     7.9248509E-02     5.8195270E+01   
                   1.9960973E-05     1.5036231E+02     3.4334965E-02    -1.2180611E+02   
                   2.1991146E-07     1.4637922E+02     2.3352055E-05     1.8225421E+01     3.0114850E-07    -1.3136133E+02     7.9313469E-06    -1.1566673E+02   
                   4.4964066E-07    -5.6795306E+01     1.4210657E-05    -3.1026353E+01     5.4608996E-02     1.7513806E+02     7.5151280E-06    -8.9998649E+01   
                   2.7204477E-03    -3.3554453E+01     3.2528813E-06     9.8134209E+01   
                   1.3448072E-05     2.8869211E+01     3.7568716E-06     7.1950029E+01     1.2367318E-05    -9.6944479E+01     6.3290242E-07     1.4382990E+02   
                   7.1162023E-06     1.0233057E+02     7.9249306E-02     5.8195467E+01     7.8813812E-06    -8.7802280E+01     2.4124514E-02    -7.4818167E+00   
                   9.5298199E-06     9.3860904E+01     1.3940931E-02     1.7439397E+02   
                   1.9996343E-06    -1.7138572E+02     3.5221438E-05     1.7651831E+02     1.4464749E-06    -1.0111761E+02     1.2846227E-05     2.0603800E+01   
                   7.6035928E-07    -1.6429583E+02     2.0064115E-05     1.5157519E+02     2.7219357E-03    -3.3544140E+01     1.0103210E-05     8.4022746E+01   
                   6.2933476E-03     4.4383362E+00     5.5011385E-06    -9.0140884E+01   
                   7.6473518E-06    -1.5291596E+02     9.9509929E-07     8.3666101E+01     8.4095467E-06     9.9287818E+01     1.5218238E-06     9.1367615E+01   
                   4.8775447E-06    -7.5919927E+01     3.4337605E-02    -1.2180565E+02     2.4928537E-06     1.0802695E+02     1.3941326E-02     1.7439659E+02   
                   5.5931719E-06    -9.7244965E+01     8.9767318E-03    -3.7695249E+00   
  7.5000000E+09     1.9602410E-02    -8.6116533E+01     2.4921778E-06     7.4537069E-01     7.6270129E-02     3.9989619E+01     1.1283181E-06    -1.4606327E+02   
                   4.4043108E-02    -1.1926188E+02     2.4566807E-05    -4.5613445E+01     1.7385442E-06    -1.6543774E+02     1.0148056E-05     1.7195817E+01   
                   2.0004402E-06     1.5596151E+02     6.5923760E-06    -1.4031814E+02   
                   4.1438907E-06    -1.7682970E+01     4.9178936E-01     2.3966081E+01     1.4561947E-06    -4.5471884E+01     1.2499135E-01    -1.5914065E+02   
                   9.0197635E-07     3.4650490E+01     2.9631522E-06     1.1686916E+02     1.4575574E-05     9.1864378E+01     1.9897900E-06     9.9758426E+00   
                   2.9238248E-05     1.6429600E+02     1.7568422E-06     8.6470670E+01   