! S-parameter export from POSTFEKO
! Filename: circular_5wg_5modes_1mm_2cm_1mm
! Creation date: 2020-01-18 23:31:34
! 
# Hz S MA R    5.0000000E+01 
  4.0000000E+09     9.9999998E-01     9.0652545E+01     6.5886959E-06    -1.1963554E+02     7.8148753E-02     3.2508133E-01     1.6982965E-05    -9.7873781E+01   
                   5.5082264E-02    -1.7967468E+02     8.5844236E-01     3.2592930E-01     1.3460391E-05     9.1550181E+01     6.5257437E-02    -1.7967532E+02   
                   1.5173407E-05    -9.2274677E+01     3.3150206E-02     3.2469562E-01   
                   1.4454359E-06    -7.8040922E+01     1.9013581E-02     1.7485028E+02     1.4566726E-06     1.3386708E+02     1.8979472E-02    -3.1875016E+00   
                   5.7835335E-07    -1.2556219E+02     1.9397047E-06    -1.2583621E+02     2.4668602E-02     1.7717946E+02     1.2681366E-06     6.0210684E+01   
                   3.4679558E-03    -9.3695322E+00     1.2372839E-06    -1.2344661E+02   
                   7.8147257E-02     3.2398988E-01     1.2492303E-06     1.6172200E+02     2.1995579E-02    -1.7202401E+02     4.4628165E-06    -7.2221765E+01   
                   1.8939952E-02     6.5237336E+00     5.3553570E-02    -3.8781507E+01     5.6332220E-07     4.9097555E+01     2.6019454E-03     7.8517672E+01   
                   8.7686019E-07    -1.5595130E+02     1.6617363E-03    -5.1211600E+01   
                   1.9820050E-06     1.5087960E+01     1.8980911E-02    -3.1825901E+00     8.6084417E-07    -4.2061922E+01     1.9712606E-02     1.7810776E+02   
                   1.2728152E-06     7.7892463E+01     1.5506264E-06     5.2022643E+01     1.2876474E-03    -1.4438084E+02     3.7308346E-07    -1.3907390E+02   
                   7.5193570E-04     1.5231248E+02     5.1350035E-07     2.9024828E+01   
                   5.5083935E-02    -1.7967713E+02     1.1586455E-06    -9.9669352E+01     1.8939339E-02     6.5213591E+00     1.0633472E-06     8.8092884E+01   
                   1.7483793E-02    -1.7502092E+02     3.5588663E-02     1.3836945E+02     9.6804658E-07    -1.3249649E+02     3.0113580E-03    -3.6642695E+01   
                   5.6543758E-07     4.6636320E+01     1.3524424E-03     1.3754612E+02   
                   8.5843750E-01     3.2596264E-01     4.0398803E-06    -1.5419305E+02     5.3554988E-02    -3.8781157E+01     1.1613629E-05    -1.2950039E+02   
                   3.5588458E-02     1.3836702E+02     5.4284067E-01    -4.2748848E+01     2.0185913E-05     7.0777935E+01     7.9831405E-02     1.5945777E+02   
                   2.0608737E-05    -1.0897951E+02     4.3247141E-02    -1.9210538E+01   
                   1.5980150E-05    -3.7707270E+01     2.4668538E-02     1.7716774E+02     2.2743603E-06     1.0386521E+02     1.2811271E-03    -1.4458834E+02   
                   1.8606579E-06    -7.7572963E+01     2.0685872E-05     7.8772533E+01     1.0496339E-02     4.7265842E+00     6.1660540E-06    -7.3124106E+01   
                   9.1543136E-03    -1.7749525E+02     2.3428979E-06     7.8997260E+01   
                   6.5270275E-02    -1.7968048E+02     3.5315638E-06     1.2939116E+02     2.6014251E-03     7.8515963E+01     2.2298035E-06    -2.8520010E+01   
                   3.0101085E-03    -3.6626100E+01     7.9834868E-02     1.5945924E+02     3.5989557E-06    -8.1844443E+01     2.1742472E-02    -5.6235216E+00   
                   7.3681539E-06     8.8445732E+01     1.3639599E-02     1.7544845E+02   
                   5.9941220E-05    -7.1924858E+01     3.4713682E-03    -9.2376064E+00     2.1940222E-06     1.3396854E+02     7.4586314E-04     1.5162488E+02   
                   2.4973741E-06    -4.2965384E+01     1.1955479E-05    -1.1634946E+02     9.1521848E-03    -1.7748860E+02     6.7263092E-06     7.6982076E+01   
                   7.8301636E-03     1.3581431E+00     3.3452759E-06    -9.5741678E+01   
                   3.3143771E-02     3.3779824E-01     2.1696507E-06     8.1627143E+01     1.6616577E-03    -5.1249608E+01     8.3149295E-07    -8.8083469E+01   
                   1.3542659E-03     1.3752589E+02     4.3252448E-02    -1.9212232E+01     3.3515306E-07     6.5171472E+01     1.3641285E-02     1.7545046E+02   
                   4.2853097E-06    -9.2449399E+01     9.2203308E-03    -3.4209613E+00   
  4.5000000E+09     9.9998905E-01    -5.8915784E+01     2.5346547E-06     1.1085361E+02     8.3409848E-02    -7.4457448E+01     3.9110743E-06    -1.2362306E+02   
                   5.3879188E-02     1.0554351E+02     1.0611430E+00    -7.4458076E+01     3.0078011E-05     2.2580284E+01     1.2105010E-01     1.0554075E+02   
                   3.7523598E-05    -1.6315114E+02     6.3749202E-02    -7.4459739E+01   
                   5.2985581E-06     1.6286617E+02     1.4159160E-02     1.7078595E+02     7.1211242E-07     6.8550743E+01     1.6555314E-02    -4.3614653E+00   
                   1.4537868E-06    -7.9725178E+01     3.3372843E-06     1.3487405E+02     2.5934978E-02     1.7256591E+02     1.3682053E-06     1.4738466E+00   
                   3.0346766E-03    -3.0686061E+01     1.3213827E-06     1.7324206E+02   
                   8.3411301E-02    -7.4457787E+01     2.2122036E-06     1.7136429E+02     2.7894144E-02    -1.7283524E+02     2.4109782E-06    -3.0393931E+01   
                   2.2845419E-02     5.6441293E+00     4.6434420E-02    -1.0761472E+02     1.5614337E-06    -1.5915063E+01     7.5946666E-03     4.1661226E+01   
                   1.9354212E-06     1.5781795E+02     3.0389543E-03    -1.1897609E+02   
                   1.6245949E-06    -1.1282457E+02     1.6553455E-02    -4.3590904E+00     1.2059873E-06    -9.9738561E+01     1.8506894E-02     1.7783727E+02   
                   4.9765929E-07     1.2601852E+02     1.2968343E-06    -9.3468861E+01     3.5755243E-03    -1.4861263E+02     8.2516417E-07     1.4599928E+02   
                   8.6941837E-04     8.1238649E+01     9.1615790E-07    -3.1023911E+01   
                   5.3877025E-02     1.0554245E+02     1.3185888E-06    -4.9202543E+01     2.2844858E-02     5.6456383E+00     2.4072878E-06     1.5774857E+02   
                   2.0062089E-02    -1.7585188E+02     3.1136200E-02     6.6655023E+01     9.8897678E-07     1.5430517E+02     3.4034389E-03    -1.0663501E+02   
                   1.4000345E-06    -3.4607150E+01     1.8821970E-03     6.5843910E+01   
                   1.0611478E+00    -7.4457949E+01     3.9157143E-06     3.2159691E+01     4.6432930E-02    -1.0761572E+02     2.4509000E-06    -7.4572746E+01   
                   3.1136366E-02     6.6654637E+01     8.5443753E-01    -1.3878137E+02     1.7237759E-05     2.9925746E+01     6.8205150E-02     1.0966548E+02   
                   2.2505797E-05    -1.5382679E+02     3.6627945E-02    -6.7434241E+01   
                   2.9610190E-05     2.6689071E+01     2.5935893E-02     1.7257663E+02     1.5688951E-06    -5.7852604E+00     3.5765319E-03    -1.4861159E+02   
                   1.1684114E-06     1.7983561E+02     1.8572263E-05     3.1994661E+01     9.8762997E-03     3.0187447E+01     6.6673179E-06    -9.1433041E+01   
                   8.8576506E-03    -1.6499028E+02     3.3391874E-06     1.1022539E+02   
                   1.2105091E-01     1.0554111E+02     5.1215535E-06    -3.3280266E+01     7.5953236E-03     4.1667536E+01     3.8135787E-06    -1.3628383E+02   
                   3.4037396E-03    -1.0663419E+02     6.8206370E-02     1.0966616E+02     6.3759518E-06    -7.8759450E+01     2.0698440E-02    -2.0733661E+01   
                   7.5486380E-06     7.5498590E+01     1.3047871E-02     1.6279802E+02   
                   4.4468172E-05    -1.6557400E+02     3.0383896E-03    -3.0805825E+01     2.3306686E-06     1.3937132E+02     8.6851866E-04     8.1137421E+01   
                   1.4539990E-06    -4.1301232E+01     2.3920471E-05    -1.5628348E+02     8.8595950E-03    -1.6500804E+02     7.4399279E-06     7.6067567E+01   
                   7.7459388E-03     7.8496044E+00     4.5992158E-06    -9.3306642E+01   
                   6.3756182E-02    -7.4460011E+01     4.6030991E-06    -4.3237458E+01     3.0380529E-03    -1.1899085E+02     4.3543458E-06    -1.4191387E+02   
                   1.8818718E-03     6.5843155E+01     3.6632193E-02    -6.7433029E+01     1.7960692E-06     1.2222034E+02     1.3047688E-02     1.6279641E+02   
                   4.2627065E-06    -1.0681844E+02     8.8803736E-03    -1.3228127E+01   
  5.0000000E+09     1.1644260E-01    -1.4699272E+02     1.1101310E-06     1.2845502E+02     3.5663474E-02    -6.7455243E+01     1.0022990E-06    -1.0745882E+02   
                   2.3446635E-02     1.2120351E+02     9.9319334E-01    -8.3656078E+01     1.8004426E-05    -2.9075843E+01     6.0570359E-02     6.6161137E+01   
                   2.0505970E-05     1.4957797E+02     3.2333793E-02    -1.1719677E+02   
                   2.6697515E-06     1.5028531E+02     1.1800720E-02     1.7475640E+02     4.5628666E-07     7.7372875E+01     1.6102457E-02    -2.2245875E+00   
                   1.2998108E-06    -9.1372835E+01     3.4278437E-06     1.7702162E+02     3.0268530E-02     1.7839086E+02     4.3813107E-07     1.0505304E-01   
                   2.9400660E-03    -7.3040921E+00     5.1451452E-07     1.6567487E+02   
                   3.5662992E-02    -6.7454614E+01     1.7779775E-06     5.8268898E+01     2.7950977E-02    -1.7729117E+02     5.6251686E-07    -1.0310000E+02   
                   2.2622429E-02     2.2116616E+00     3.7007986E-02    -1.1254224E+02     7.6531470E-07    -8.3965077E+01     6.4923509E-03     1.2153817E+01   
                   7.6543179E-07     9.6489823E+01     1.8275564E-03    -1.5841637E+02   
                   1.5251607E-06     1.0760148E+02     1.6103123E-02    -2.2150062E+00     1.8267913E-06    -1.0661702E+02     1.8635086E-02     1.7885362E+02   
                   1.3774095E-06     7.8463754E+01     7.7789062E-07    -1.6445588E+02     3.6344164E-03    -1.7506133E+02     4.9439442E-07     7.5629183E+01   
                   2.5643808E-04     3.1383159E+01     5.8353959E-07    -7.9992081E+01   
                   2.3446853E-02     1.2120275E+02     1.0567700E-06    -7.1654791E+01     2.2622728E-02     2.2112980E+00     4.6233891E-07     9.1133419E+01   
                   1.9744696E-02    -1.7829099E+02     2.5072354E-02     5.9657884E+01     3.6375815E-07     9.9829713E+01     1.1338210E-03    -1.3843831E+02   
                   5.5474987E-07    -5.5878265E+01     8.4147922E-04     2.5290118E+01   
                   9.9319538E-01    -8.3656036E+01     2.4159511E-06     1.3581790E+02     3.7009372E-02    -1.1254256E+02     7.0322401E-06     1.6670296E+02   
                   2.5070741E-02     5.9661331E+01     1.1645021E-01     1.5968037E+02     1.5659775E-05     3.4431577E+01     5.3990154E-02     1.1895935E+02   
                   1.8866111E-05    -1.4072460E+02     2.8768748E-02    -5.6804047E+01   
                   1.9326245E-05    -2.7770709E+01     3.0268556E-02     1.7839161E+02     8.0809918E-07    -5.6123175E+01     3.6355436E-03    -1.7507382E+02   
                   5.0412663E-07     1.1310314E+02     1.7081163E-05     3.6959984E+01     8.6585023E-03     2.2048504E+01     6.9776112E-06    -9.0075748E+01   
                   8.9396915E-03    -1.7051592E+02     3.6673221E-06     9.4322901E+01   
                   6.0573420E-02     6.6160686E+01     1.4165878E-07     2.9679128E+01     6.4926327E-03     1.2153856E+01     6.7103987E-07    -1.0762177E+01   
                   1.1338559E-03    -1.3842690E+02     5.3991471E-02     1.1896076E+02     5.5966757E-06    -8.8201043E+01     1.7925567E-02    -1.0582354E+01   
                   6.8827290E-06     8.7974217E+01     1.1524842E-02     1.7125642E+02   
                   2.1883801E-05     1.5088407E+02     2.9394521E-03    -7.3059600E+00     1.0945150E-06     1.1714477E+02     2.5725886E-04     3.1592674E+01   
                   5.3529278E-07    -6.8122127E+01     2.0069887E-05    -1.4140785E+02     8.9376298E-03    -1.7050857E+02     7.5175151E-06     8.7411019E+01   
                   7.9866527E-03     4.8043411E+00     5.2164049E-06    -9.2160199E+01   
                   3.2337210E-02    -1.1719791E+02     7.1757786E-07     1.4561558E+02     1.8275047E-03    -1.5841834E+02     2.4385860E-07     1.2012137E+02   
                   8.4165768E-04     2.5274263E+01     2.8771041E-02    -5.6804314E+01     3.8313224E-06     8.0487848E+01     1.1526198E-02     1.7125542E+02   
                   6.3962688E-06    -9.5469197E+01     8.0509224E-03    -6.6821927E+00   
  5.5000000E+09     4.1474939E-02     1.6999653E+02     2.4595622E-06     1.5800977E+02     3.2135610E-02    -6.6046982E+01     1.1874901E-06    -1.2178523E+01   
                   2.1909769E-02     1.2431521E+02     9.9913741E-01    -1.0711509E+02     1.7043407E-05    -4.9208876E+01     5.0642730E-02     5.0142214E+01   
                   1.7801913E-05     1.3000191E+02     2.6857815E-02    -1.3495400E+02   
                   2.3225276E-06     1.5407410E+02     7.6338505E-03     1.7207501E+02     7.0365410E-07     6.2527327E+01     1.4973078E-02    -2.4160999E+00   
                   1.1309208E-06    -1.0994131E+02     1.7618077E-06     1.5342677E+02     3.7531340E-02     1.7964578E+02     4.5635969E-07     6.2189306E+01   
                   3.7512198E-03    -1.2988927E+00     2.3993277E-07    -1.4017244E+02   
                   3.2136825E-02    -6.6046765E+01     1.1068417E-06     1.2155095E+02     2.9278839E-02    -1.7790354E+02     1.5337155E-06    -8.1800098E+01   
                   2.3266836E-02     1.7749452E+00     3.3301495E-02    -1.3228646E+02     2.8563161E-07    -4.0017647E+01     6.7299214E-03     6.0796187E+00   
                   2.9624159E-07     1.0651584E+02     1.6603206E-03    -1.6943947E+02   
                   4.3169148E-07     1.0293392E+02     1.4974185E-02    -2.4190861E+00     1.3781803E-06    -1.0302103E+02     1.8442229E-02     1.7876452E+02   
                   1.4728158E-06     8.5271835E+01     6.3582707E-07    -3.3532320E+00     4.0917891E-03     1.7850207E+02     4.3559960E-07     6.0202934E+01   
                   1.9809788E-04    -1.6729060E+01     4.9259575E-07    -9.2235356E+01   
                   2.1908953E-02     1.2431367E+02     1.7054973E-06    -7.0014755E+01     2.3267031E-02     1.7763234E+00     1.2559146E-06     8.4344105E+01   
                   2.0025836E-02    -1.7856817E+02     2.2820061E-02     3.8122024E+01     1.1789354E-06     7.3225667E+01     6.4728643E-04    -1.5170456E+02   
                   8.3286756E-07    -8.5854065E+01     6.3974006E-04     9.8456613E+00   
                   9.9913605E-01    -1.0711502E+02     3.0885918E-06     1.3416341E+02     3.3301721E-02    -1.3228174E+02     4.6470929E-06    -1.0615911E+02   
                   2.2820868E-02     3.8122919E+01     4.1476940E-02     1.5577337E+02     1.6584970E-05     3.6739068E+01     4.8719458E-02     1.1188226E+02   
                   1.7020239E-05    -1.5194930E+02     2.5782974E-02    -6.2598084E+01   
                   1.5692937E-05    -5.1511073E+01     3.7530737E-02     1.7964751E+02     7.7643070E-07    -6.8975348E+01     4.0906497E-03     1.7851110E+02   
                   4.5693468E-07     9.5453321E+01     1.6282963E-05     3.5657691E+01     4.8131220E-03     4.0985367E+01     8.2095812E-06    -8.8014288E+01   
                   7.7092066E-03    -1.6959446E+02     3.5430841E-06     9.7868860E+01   
                   5.0643439E-02     5.0142910E+01     7.5915593E-07     1.9592441E+01     6.7302370E-03     6.0775986E+00     1.6631498E-06     3.7578100E+00   
                   6.4710117E-04    -1.5170949E+02     4.8721102E-02     1.1188130E+02     5.9016389E-06    -9.8799239E+01     1.8974056E-02    -7.4799198E+00   
                   8.4805918E-06     8.5892643E+01     1.1995944E-02     1.7376578E+02   
                   1.9618304E-05     1.3070189E+02     3.7514939E-03    -1.2986674E+00     1.0084304E-06     1.1705988E+02     1.9896970E-04    -1.7024620E+01   
                   5.9014716E-07    -8.6963665E+01     1.7871718E-05    -1.4237209E+02     7.7090169E-03    -1.6958606E+02     9.1800709E-06     8.5197954E+01   
                   7.6486114E-03     4.6051833E+00     6.5156848E-06    -9.7742526E+01   
                   2.6859791E-02    -1.3495406E+02     1.0735988E-06     6.8587695E+00     1.6601780E-03    -1.6943952E+02     4.8299048E-07    -7.1813431E+00   
                   6.3995114E-04     9.8553735E+00     2.5785625E-02    -6.2597921E+01     4.6362146E-06     9.4346501E+01     1.1995728E-02     1.7376372E+02   
                   5.8716896E-06    -9.2064137E+01     8.2607239E-03    -4.8196577E+00   
  6.0000000E+09     1.4102661E-02     1.4552896E+02     2.1452798E-06    -1.4144445E+02     3.0081125E-02    -6.8429334E+01     5.6317536E-07    -1.2114955E+02   
                   2.0876602E-02     1.2313087E+02     9.9989940E-01    -1.2782669E+02     1.6208060E-05    -6.7406613E+01     4.5839798E-02     3.5567620E+01   
                   1.9879345E-05     1.1302929E+02     2.4122579E-02    -1.5100961E+02   
                   1.8961792E-06    -1.7970462E+02     1.3994708E-03     1.3195956E+02     8.5581644E-07     8.2558423E+01     1.3397325E-02    -2.7673132E+00   
                   1.1408014E-06    -1.1092184E+02     1.6168757E-06    -1.7557702E+02     4.8238849E-02    -1.7966295E+02     6.6847554E-07     9.4308397E+01   
                   4.9752149E-03     1.6487634E+00     2.7577286E-07    -1.2776020E+02   
                   3.0081263E-02    -6.8428384E+01     1.1269425E-06     3.0945224E+01     3.1047242E-02    -1.7830589E+02     1.1481247E-06    -1.0544301E+02   
                   2.4115185E-02     1.4832531E+00     3.0497814E-02    -1.4956941E+02     1.2995537E-06    -1.2453488E+02     7.3127424E-03     2.6170784E+00   
                   5.1931556E-07     4.3347165E+01     1.6394496E-03    -1.7676514E+02   
                   4.4616288E-07     1.7716578E+02     1.3397587E-02    -2.7622436E+00     1.1888355E-06    -1.2570420E+02     1.8181882E-02     1.7864613E+02   
                   1.2627140E-06     1.0509354E+02     2.0533346E-07    -7.7391161E+01     4.7753645E-03     1.7418540E+02     3.8082716E-07     8.1830129E+01   
                   2.7124220E-04    -5.3691241E+01     2.3549119E-07    -1.3776997E+02   
                   2.0878381E-02     1.2312843E+02     1.6916331E-06    -1.3268115E+02     2.4114824E-02     1.4841009E+00     1.0699443E-06     1.6299568E+02   
                   2.0399064E-02    -1.7875868E+02     2.1168330E-02     1.9191296E+01     5.7337010E-07    -1.3541122E+02     3.4647286E-04    -1.7272699E+02   
                   5.3246862E-07    -3.8958067E+01     5.3476705E-04    -3.8256074E+00   
                   9.9989488E-01    -1.2782672E+02     1.7304961E-05    -1.0526077E+02     3.0499609E-02    -1.4956981E+02     3.9438287E-06    -4.2622863E+01   
                   2.1168360E-02     1.9195501E+01     1.4104061E-02     1.3882331E+02     1.7118317E-05     3.3716764E+01     4.5221828E-02     1.0638293E+02   
                   2.0715495E-05    -1.4795917E+02     2.3784084E-02    -6.6857315E+01   
                   1.6679038E-05    -7.5380785E+01     4.8258642E-02    -1.7967342E+02     3.5052229E-06    -1.1240259E+02     4.7709870E-03     1.7421294E+02   
                   1.1340292E-06     8.5404502E+01     1.7551734E-05     2.8597258E+01     4.6154275E-03     1.3169256E+02     8.0329609E-06    -9.1288676E+01   
                   6.0230089E-03    -1.6587717E+02     4.4413507E-06     1.0809732E+02   
                   4.5845057E-02     3.5558098E+01     6.9313385E-06    -1.1979956E+02     7.3097551E-03     2.6336209E+00     1.4220425E-05     6.0857489E+01   
                   3.4545292E-04    -1.7257569E+02     4.5226369E-02     1.0638713E+02     7.4204241E-06    -9.9408081E+01     2.0362630E-02    -5.8434390E+00   
                   9.2084834E-06     8.3297458E+01     1.2607000E-02     1.7507075E+02   
                   2.0956424E-05     1.1342835E+02     4.9645746E-03     1.7552497E+00     4.5735301E-06    -1.2579630E+02     2.8029231E-04    -5.3609729E+01   
                   1.3566693E-06     3.8768711E+01     1.8033460E-05    -1.4506673E+02     6.0235759E-03    -1.6588281E+02     1.1271416E-05     9.0318981E+01   
                   7.2158381E-03     4.9811442E+00     5.4441841E-06    -8.5300115E+01   
                   2.4115503E-02    -1.5099698E+02     6.3782050E-06    -1.3378173E+02     1.6424374E-03    -1.7680870E+02     1.3464830E-05     7.3972599E+01   
                   5.3843563E-04    -4.0197140E+00     2.3783588E-02    -6.6865949E+01     3.5582803E-06     1.1118602E+02     1.2607430E-02     1.7507009E+02   
                   6.1305969E-06    -9.3577831E+01     8.5264492E-03    -3.8614200E+00   
  6.5000000E+09     8.4437094E-03    -1.3705757E+02     3.0462789E-07    -1.1063952E+02     2.8308131E-02    -7.1984939E+01     1.7989583E-06     1.1904898E+02   
                   1.9848961E-02     1.2081698E+02     9.9996278E-01    -1.4706491E+02     1.3760812E-05    -8.1659588E+01     4.2956799E-02     2.1913035E+01   
                   1.9995234E-05     9.4498073E+01     2.2397676E-02    -1.6605359E+02   
                   7.3188737E-07     1.1307223E+02     1.0443345E-02     5.4399277E+00     1.8992303E-06     9.8161028E+01     1.1200152E-02    -3.3107908E+00   
                   1.0200859E-06    -8.2945267E+01     1.7818450E-06    -1.7157207E+02     6.4899102E-02    -1.7931849E+02     1.3740175E-06     1.0520896E+02   
                   6.8822527E-03     2.8163956E+00     8.6659223E-07    -7.2415191E+01   
                   2.8308213E-02    -7.1985113E+01     1.0155960E-06    -1.5226518E+02     3.3269408E-02    -1.7862184E+02     1.9146496E-06    -8.8673739E+01   
                   2.5135387E-02     1.2504690E+00     2.8279739E-02    -1.6556104E+02     7.4150545E-07    -2.4845058E+01     8.1829405E-03     5.0695873E-01   
                   6.6891842E-07     1.0720943E+02     1.6900510E-03     1.7829477E+02   
                   4.5438045E-07     6.2947665E+01     1.1201684E-02    -3.3039694E+00     1.4620228E-06    -7.6615928E+01     1.7876036E-02     1.7851864E+02   
                   1.0903396E-06     8.9908298E+01     1.0854578E-06    -8.8886804E+01     5.7702037E-03     1.7129122E+02     4.2596477E-07     4.8441330E+01   
                   3.9095562E-04    -7.1132103E+01     4.9874298E-07    -1.1722062E+02   
                   1.9848722E-02     1.2081808E+02     2.1692855E-06    -2.4611890E+01     2.5135882E-02     1.2512319E+00     2.8920623E-06     9.6580147E+01   
                   2.0825076E-02    -1.7891243E+02     1.9903651E-02     1.6636883E+00     1.2310571E-06     5.0526658E+01     1.7957905E-04     1.2924038E+02   
                   1.0110267E-06    -8.2752046E+01     4.6517996E-04    -1.6584476E+01   
                   9.9996027E-01    -1.4706441E+02     1.1030968E-05    -9.8793295E+01     2.8279135E-02    -1.6556345E+02     5.7824006E-06    -1.0506509E+01   
                   1.9905675E-02     1.6662269E+00     8.4436567E-03     2.2985220E+01     1.3652916E-05     3.0822416E+01     4.2954123E-02     1.0150184E+02   
                   1.8538809E-05    -1.5197027E+02     2.2447767E-02    -7.0548661E+01   
                   1.0992745E-05    -8.9198453E+01     6.4892100E-02    -1.7931142E+02     1.9624746E-06     1.5834815E+02     5.7759090E-03     1.7134149E+02   
                   4.4079135E-07     5.2252589E+01     1.7092906E-05     1.1897932E+01     1.4376319E-02     1.6371882E+02     9.0561443E-06    -8.2981141E+01   
                   3.7040575E-03    -1.5363727E+02     4.5672765E-06     9.7365489E+01   
                   4.2955974E-02     2.1904576E+01     6.0960467E-06     2.0358222E+01     8.1840631E-03     5.0913732E-01     8.5279550E-06    -9.1171654E+01   
                   1.7945709E-04     1.2879658E+02     4.2963854E-02     1.0150095E+02     8.3087983E-06    -9.2023005E+01     2.2100013E-02    -4.7933682E+00   
                   1.3395106E-05     9.3721805E+01     1.3349401E-02     1.7589944E+02   
                   2.0724374E-05     8.7365765E+01     6.8787450E-03     2.7380172E+00     3.1353119E-06     9.7609163E+01     3.9231217E-04    -7.2266000E+01   
                   6.5637192E-07    -1.1618471E+02     2.2488226E-05    -1.4153089E+02     3.7030141E-03    -1.5362907E+02     1.1733654E-05     9.3411777E+01   
                   6.6473548E-03     5.8171074E+00     6.4676434E-06    -9.2628245E+01   
                   2.2404556E-02    -1.6603659E+02     4.0049839E-06     1.1466815E+02     1.6877220E-03     1.7828955E+02     6.5967162E-06    -4.0518142E+01   
                   4.6545279E-04    -1.6550308E+01     2.2442077E-02    -7.0542104E+01     2.6414074E-06     7.7142213E+01     1.3350153E-02     1.7589961E+02   
                   6.7300205E-06    -9.3262877E+01     8.8365013E-03    -3.2726887E+00   
  7.0000000E+09     2.2193856E-02    -1.3461002E+02     1.4983621E-06     9.7381883E+01     2.6604138E-02    -7.5835598E+01     7.8578495E-07    -5.6918944E+01   
                   1.8801029E-02     1.1836664E+02     9.9975313E-01    -1.6536922E+02     1.4210543E-05    -9.8604666E+01     4.1119534E-02     8.9003720E+00   
                   1.7872862E-05     8.1242481E+01     2.1202631E-02     1.7957514E+02   
                   3.0318390E-06     1.2265228E+02     3.3207615E-02     1.4827666E+00     1.2161461E-06     8.6891872E+01     7.9734975E-03    -4.4345709E+00   
                   1.3519128E-06    -9.8408247E+01     2.5974470E-06    -1.5429115E+02     9.2796446E-02    -1.7925247E+02     2.1877694E-06     8.8780798E+01   
                   1.0039139E-02     2.7942305E+00     1.8416033E-06    -8.2592152E+01   
                   2.6604650E-02    -7.5833875E+01     1.8502559E-06     1.0123483E+02     3.6068182E-02    -1.7888143E+02     2.0693785E-06    -8.1718301E+01   
                   2.6349796E-02     1.0531854E+00     2.6443616E-02     1.7924134E+02     9.3214275E-07    -9.4888436E+01     9.4061291E-03    -7.5172418E-01   
                   9.3688252E-07     4.7453038E+01     1.8037736E-03     1.7514198E+02   
                   1.1433210E-06     6.3971728E+01     7.9757675E-03    -4.4343842E+00     1.7392843E-06    -8.2725630E+01     1.7536107E-02     1.7836937E+02   
                   1.6341516E-06     1.0182502E+02     1.2248716E-06    -1.7253523E+02     7.3371882E-03     1.6981198E+02     2.3801525E-07    -4.1521693E+01   
                   5.2447385E-04    -7.7985783E+01     6.4485524E-07    -1.2696480E+02   
                   1.8799990E-02     1.1836602E+02     9.8374908E-07    -1.4102718E+02     2.6350454E-02     1.0541389E+00     7.3693827E-07     1.0776262E+02   
                   2.1298480E-02    -1.7904463E+02     1.8891510E-02    -1.4977844E+01     1.9954067E-07     1.7450086E+01     3.0820919E-04     6.2876512E+01   
                   6.7214584E-07    -4.1398804E+01     4.1288850E-04    -2.9039464E+01   
                   9.9974843E-01    -1.6536920E+02     8.7239736E-06     1.1626708E+02     2.6437696E-02     1.7924097E+02     2.6004626E-05     4.5708047E+00   
                   1.8891502E-02    -1.4974873E+01     2.2183793E-02    -1.6129199E+01     1.5887647E-05     2.9062640E+01     4.1560020E-02     9.6839574E+01   
                   1.8791500E-05    -1.5654574E+02     2.1549507E-02    -7.4082061E+01   
                   1.4183366E-05    -1.0376051E+02     9.2803595E-02    -1.7925053E+02     2.7096438E-06    -1.6751867E+02     7.3369057E-03     1.6974224E+02   
                   9.6190745E-07     2.6930238E+01     1.5849138E-05     2.4570102E+01     3.2960378E-02     1.7127946E+02     7.3843378E-06    -8.5082458E+01   
                   2.0153025E-03    -7.3508599E+01     4.1403548E-06     1.0956422E+02   
                   4.1118967E-02     8.8964408E+00     7.0379447E-06     7.6235956E+01     9.4073031E-03    -7.5683962E-01     1.4434025E-05    -3.1809420E+01   
                   3.1012370E-04     6.3073132E+01     4.1561198E-02     9.6842939E+01     9.8851119E-06    -8.1113694E+01     2.4274996E-02    -4.0409607E+00   
                   1.1912528E-05     8.2277508E+01     1.4244954E-02     1.7648475E+02   
                   1.7550047E-05     7.8117136E+01     1.0035113E-02     2.7734135E+00     2.8696660E-06     1.4057541E+02     5.1689270E-04    -7.6984200E+01   
                   7.4324400E-07    -2.2011747E+01     1.7551215E-05    -1.6186469E+02     2.0150192E-03    -7.3546655E+01     1.1787857E-05     8.1129602E+01   
                   5.8800427E-03     7.3117428E+00     6.5309128E-06    -8.7537084E+01   
                   2.1204978E-02     1.7957870E+02     1.0784831E-05     6.3741829E+00     1.7995351E-03     1.7521165E+02     1.7262412E-05    -3.9878772E+01   
                   4.1218327E-04    -2.8912923E+01     2.1554715E-02    -7.4087317E+01     3.5105518E-06     1.1461037E+02     1.4244695E-02     1.7648553E+02   
                   7.3963922E-06    -8.3973870E+01     9.1979778E-03    -2.8558344E+00   
  7.5000000E+09     3.4713765E-02    -1.5190428E+02     2.7165537E-06     7.6324675E+01     2.4968689E-02    -7.9558954E+01     1.8291119E-06     1.0216873E+02   
                   1.7781973E-02     1.1616992E+02     9.9939520E-01     1.7695885E+02     1.3696314E-05    -1.1160325E+02     4.0013448E-02    -3.6692133E+00   
                   2.0119184E-05     6.3187488E+01     2.0356431E-02     1.6566094E+02   
                   3.4996651E-06     7.6238474E+01     9.8247310E-02     3.3837606E-01     4.3593629E-07     9.9687687E+01     2.7431983E-03    -1.0925009E+01   
                   1.5432489E-06    -8.8022814E+01     3.7767693E-06    -1.6437857E+02     1.4514945E-01    -1.7942318E+02     4.4894468E-06     9.2162603E+01   
                   1.5861319E-02     1.9501762E+00     3.0629714E-06    -8.4639059E+01   