! S-parameter export from POSTFEKO
! Filename: circular_5wg_5modes_1mm_2cm_1mm
! Creation date: 2020-01-18 02:16:51
! 
# Hz S MA R    5.0000000E+01 
  4.0000000E+09     5.4548710E-01    -4.2942212E+01     1.7265963E-05     4.8562847E+01     7.9798116E-02     1.5934966E+02     2.3201828E-05    -1.0783491E+02   
                   4.3284864E-02    -1.9337581E+01   
                   1.9749972E-05     7.5272619E+01     1.0504986E-02     4.7907283E+00     6.8281380E-06    -9.0252876E+01     9.1529558E-03    -1.7745779E+02   
                   3.3752210E-06     8.9725640E+01   
                   7.9798026E-02     1.5935142E+02     6.1046354E-06    -9.5757736E+01     2.1739136E-02    -5.6269523E+00     7.5475225E-06     8.1725708E+01   
                   1.3637207E-02     1.7543327E+02   
                   2.1956513E-05    -1.0817030E+02     9.1477735E-03    -1.7745592E+02     7.2011777E-06     8.4225284E+01     7.8330618E-03     1.3745632E+00   
                   4.6066060E-06    -8.9061274E+01   
                   4.3287758E-02    -1.9335248E+01     2.4750882E-06     1.0796168E+02     1.3638049E-02     1.7543597E+02     3.6990400E-06    -7.2604904E+01   
                   9.2203804E-03    -3.4382344E+00   
  4.5000000E+09     8.5502494E-01    -1.3892823E+02     1.8627307E-05     2.9765827E+01     6.7862163E-02     1.0962099E+02     2.1459020E-05    -1.4837889E+02   
                   3.6493240E-02    -6.7524043E+01   
                   1.8277100E-05     3.3319797E+01     9.8985294E-03     3.0095222E+01     6.3473509E-06    -9.6517623E+01     8.8657405E-03    -1.6503848E+02   
                   3.2302321E-06     1.1033636E+02   
                   6.7863132E-02     1.0962109E+02     5.4522417E-06    -9.6135634E+01     2.0682333E-02    -2.0592616E+01     7.3274861E-06     7.7479502E+01   
                   1.3035571E-02     1.6287923E+02   
                   2.1340087E-05    -1.5347507E+02     8.8651972E-03    -1.6504350E+02     7.9477518E-06     7.8938365E+01     7.7495578E-03     7.8255111E+00   
                   4.5077669E-06    -9.5794843E+01   
                   3.6495862E-02    -6.7524726E+01     3.4473211E-06     1.1477731E+02     1.3034993E-02     1.6287802E+02     3.3136003E-06    -9.9263984E+01   
                   8.8731964E-03    -1.3186193E+01   
  5.0000000E+09     1.1771231E-01     1.5945282E+02     1.7055593E-05     4.2025779E+01     5.3813866E-02     1.1909886E+02     1.8543123E-05    -1.4204412E+02   
                   2.8712267E-02    -5.6736429E+01   
                   1.6362530E-05     3.8968696E+01     8.6674794E-03     2.2003342E+01     7.2772386E-06    -9.2732034E+01     8.9390857E-03    -1.7052582E+02   
                   3.7386234E-06     9.9090627E+01   
                   5.3815218E-02     1.1909933E+02     6.7863834E-06    -8.9304232E+01     1.7958845E-02    -1.0511570E+01     6.5084455E-06     8.2109683E+01   
                   1.1533078E-02     1.7129253E+02   
                   2.0653815E-05    -1.4112853E+02     8.9370682E-03    -1.7051599E+02     7.6629700E-06     8.4077500E+01     7.9851314E-03     4.8017617E+00   
                   4.9871904E-06    -8.6454761E+01   
                   2.8716510E-02    -5.6736912E+01     3.6299517E-06     9.6571468E+01     1.1532637E-02     1.7129139E+02     4.2886227E-06    -9.2663226E+01   
                   8.0529246E-03    -6.6647629E+00   
  5.5000000E+09     4.2127001E-02     1.5469430E+02     1.8247235E-05     3.4670530E+01     4.8607359E-02     1.1207482E+02     1.8148617E-05    -1.5084176E+02   
                   2.5754793E-02    -6.2504673E+01   
                   1.6362654E-05     3.8549832E+01     4.8225525E-03     4.0833904E+01     7.5592226E-06    -8.5864664E+01     7.7092657E-03    -1.6960457E+02   
                   3.8308184E-06     1.0119844E+02   
                   4.8607520E-02     1.1207404E+02     7.1131809E-06    -9.0014119E+01     1.9014822E-02    -7.4365321E+00     7.9364437E-06     8.9086243E+01   
                   1.2005204E-02     1.7378516E+02   
                   1.9534231E-05    -1.4856365E+02     7.7081798E-03    -1.6960743E+02     8.5756080E-06     8.8346410E+01     7.6496956E-03     4.6031510E+00   
                   5.2335021E-06    -9.0826457E+01   
                   2.5755850E-02    -6.2504096E+01     4.1737823E-06     9.9649648E+01     1.2006968E-02     1.7378360E+02     4.8096709E-06    -9.7983672E+01   
                   8.2626028E-03    -4.8058258E+00   
  6.0000000E+09     1.4131296E-02     1.3793336E+02     1.4482591E-05     2.8652150E+01     4.5218764E-02     1.0637755E+02     1.7757515E-05    -1.4812262E+02   
                   2.3784181E-02    -6.6841724E+01   
                   1.6671319E-05     3.0644901E+01     4.6105530E-03     1.3164927E+02     8.0122811E-06    -9.8437171E+01     6.0240194E-03    -1.6588912E+02   
                   4.4171095E-06     9.9314210E+01   
                   4.5220010E-02     1.0637724E+02     7.5906295E-06    -8.0040559E+01     2.0362325E-02    -5.8431843E+00     1.0390065E-05     8.8844878E+01   
                   1.2607118E-02     1.7506765E+02   
                   1.9216540E-05    -1.4922025E+02     6.0237198E-03    -1.6588248E+02     9.6302774E-06     8.7684236E+01     7.2163520E-03     4.9821659E+00   
                   5.3336686E-06    -8.9032325E+01   
                   2.3786653E-02    -6.6842792E+01     3.6492855E-06     1.0506493E+02     1.2607234E-02     1.7506981E+02     5.2133134E-06    -7.8834988E+01   
                   8.5257122E-03    -3.8597238E+00   
  6.5000000E+09     8.6086977E-03     2.3076425E+01     1.5789216E-05     3.8320704E+01     4.2950707E-02     1.0149288E+02     2.0811998E-05    -1.5467568E+02   
                   2.2449077E-02    -7.0539444E+01   
                   1.5388092E-05     3.1172671E+01     1.4369501E-02     1.6372128E+02     9.6136180E-06    -8.3330310E+01     3.7051080E-03    -1.5364516E+02   
                   4.4233287E-06     1.0480203E+02   
                   4.2947734E-02     1.0149646E+02     7.3602011E-06    -8.9296919E+01     2.2098860E-02    -4.7902937E+00     1.2084588E-05     8.6107924E+01   
                   1.3349277E-02     1.7589853E+02   
                   2.0445952E-05    -1.6122717E+02     3.7050619E-03    -1.5362660E+02     1.0863635E-05     8.5891909E+01     6.6485711E-03     5.8165693E+00   
                   6.3630470E-06    -9.1594144E+01   
                   2.2457018E-02    -7.0537949E+01     5.5578997E-06     1.0215125E+02     1.3350489E-02     1.7590053E+02     6.2965683E-06    -8.4502754E+01   
                   8.8372408E-03    -3.2672907E+00   
  7.0000000E+09     2.2314277E-02    -1.5972239E+01     1.4694749E-05     2.7810725E+01     4.1555077E-02     9.6830521E+01     1.8365865E-05    -1.5318326E+02   
                   2.1551147E-02    -7.4073930E+01   
                   1.8383467E-05     4.3317568E+01     3.2948530E-02     1.7128435E+02     7.7468079E-06    -8.5999405E+01     2.0135968E-03    -7.3638065E+01   
                   3.4594502E-06     1.2032420E+02   
                   4.1546612E-02     9.6825099E+01     7.8023201E-06    -8.6544650E+01     2.4274882E-02    -4.0390366E+00     1.2041941E-05     8.7655764E+01   
                   1.4244081E-02     1.7648579E+02   
                   1.5411978E-05    -1.6693114E+02     2.0139835E-03    -7.3555475E+01     1.2774067E-05     9.1245590E+01     5.8807567E-03     7.2952343E+00   
                   7.5438039E-06    -9.7331914E+01   
                   2.1563023E-02    -7.4081769E+01     4.3063175E-06     9.7383641E+01     1.4244728E-02     1.7648731E+02     6.7432513E-06    -9.5953603E+01   
                   9.1979795E-03    -2.8535312E+00   
  7.5000000E+09     3.4799016E-02    -3.4065891E+01     1.3542315E-05     2.8374114E+01     4.0849577E-02     9.2196491E+01     2.0779421E-05    -1.5889798E+02   
                   2.0964471E-02    -7.7642296E+01   
                   1.4647357E-05     5.4350863E+00     7.1888999E-02     1.7469033E+02     1.0005818E-05    -7.5173213E+01     7.7937031E-03    -1.7834968E+01   
                   3.1275508E-06     1.0300050E+02   
                   4.0849533E-02     9.2194086E+01     8.0986710E-06    -7.8324038E+01     2.7038631E-02    -3.4721020E+00     1.3584102E-05     9.0543345E+01   
                   1.5333038E-02     1.7692456E+02   
                   2.0422198E-05    -1.3803604E+02     7.7996095E-03    -1.7828111E+01     1.1051795E-05     8.3525463E+01     4.7392065E-03     1.0422345E+01   
                   7.5192891E-06    -8.5951657E+01   
                   2.0968705E-02    -7.7636930E+01     3.5394587E-06     1.1118321E+02     1.5333891E-02     1.7693016E+02     7.8851327E-06    -9.1435095E+01   
                   9.6176013E-03    -2.5504086E+00   
  8.0000000E+09     4.5220465E-02    -5.0863018E+01     9.7059011E-06     4.1054080E+01     4.0800639E-02     8.7632953E+01     2.0362735E-05    -1.5714214E+02   
                   2.0637306E-02    -8.1253132E+01   
                   1.5109977E-05     3.3145262E+01     2.3391766E-01     1.6379934E+02     2.4427309E-06    -4.6369277E+01     2.9492392E-02    -1.8293306E+01   
                   2.6606519E-06     1.7936855E+02   
                   4.0796889E-02     8.7631521E+01     5.8609340E-06    -4.1842246E+01     3.0688873E-02    -3.0788796E+00     1.4704315E-05     8.9848241E+01   
                   1.6701531E-02     1.7722321E+02   
                   1.8413469E-05    -1.6063082E+02     2.9492415E-02    -1.8293298E+01     1.3723901E-05     8.8434939E+01     2.5512551E-03     4.1501880E+01   
                   7.9693074E-06    -9.1417040E+01   
                   2.0643303E-02    -8.1255636E+01     4.3123301E-06     1.7835988E+02     1.6702079E-02     1.7722239E+02     8.0566348E-06    -9.2199699E+01   
                   1.0119882E-02    -2.3437830E+00   
  8.5000000E+09     5.5528128E-02    -7.1539298E+01     2.1217537E-05     6.7155582E+01     4.2654933E-02     8.2890129E+01     1.9755317E-05    -1.6459645E+02   
                   2.0966064E-02    -8.5400431E+01   
                   1.3218169E-05     4.6094971E+01     4.2243921E-01     1.2438766E+02     1.5355400E-05    -8.8858597E+00     5.4026384E-02    -4.9397200E+01   
                   1.0078105E-05     1.7899680E+02   
                   4.2652268E-02     8.2883134E+01     1.6706364E-05     5.5434078E+00     3.5472858E-02    -3.2286991E+00     1.7814668E-05     9.3263902E+01   
                   1.8390653E-02     1.7710988E+02   
                   2.4339190E-05    -1.4690475E+02     5.4033661E-02    -4.9398159E+01     1.7557244E-05     9.8475357E+01     5.3237957E-03     8.3301844E+01   
                   7.7391641E-06    -9.0501079E+01   
                   2.0969301E-02    -8.5386997E+01     1.1363143E-05     1.7285299E+02     1.8390833E-02     1.7711304E+02     8.4698910E-06    -7.3389725E+01   
                   1.0701883E-02    -2.4126861E+00   
  9.0000000E+09     5.6287185E-02    -1.0973686E+02     3.4941262E-05     4.7456478E+01     4.6386492E-02     7.3002218E+01     2.2979994E-05    -1.6400692E+02   
                   2.1439376E-02    -9.3811825E+01   
                   2.2255295E-05     4.7179003E+01     7.4189692E-01     7.8998619E+01     3.3323276E-05    -2.8435192E+01     8.2229263E-02    -8.6282737E+01   
                   2.0858051E-05     1.6082276E+02   
                   4.6387429E-02     7.3005840E+01     3.8780653E-05    -2.2497316E+01     4.1453808E-02    -3.9217674E+00     2.1232210E-05     9.9906791E+01   
                   2.0326500E-02     1.7662082E+02   
                   2.6000193E-05    -1.6817570E+02     8.2230728E-02    -8.6279907E+01     2.0411033E-05     9.4398232E+01     1.0320575E-02     7.0976799E+01   
                   1.0574850E-05    -8.3156156E+01   
                   2.1442432E-02    -9.3822770E+01     1.9333212E-05     1.5462970E+02     2.0327353E-02     1.7662081E+02     1.0110207E-05    -8.1089958E+01   
                   1.1311017E-02    -2.7183238E+00   
  9.5000000E+09     1.3233932E-02    -1.5499629E+02     1.1638770E-05     3.2910948E+01     4.2620204E-02     5.8913926E+01     2.0099703E-05    -1.7277398E+02   
                   1.8742137E-02    -1.0241291E+02   
                   1.6310750E-05     6.1154473E+01     7.7382227E-01    -1.8537497E+00     2.5739037E-05    -3.4905859E+01     4.5717715E-02    -9.8988397E+01   
                   1.3747434E-05     1.4836451E+02   
                   4.2620862E-02     5.8915344E+01     2.0658083E-05    -2.5692195E+01     4.8977012E-02    -3.0596713E+00     2.5220685E-05     9.3460218E+01   
                   2.2567617E-02     1.7737174E+02   
                   2.4799233E-05    -1.7736882E+02     4.5712020E-02    -9.8988797E+01     2.3930419E-05     9.2767984E+01     8.3049934E-03     3.4162554E+01   
                   1.2318496E-05    -8.6695024E+01   
                   1.8744839E-02    -1.0241478E+02     9.8766933E-06     1.4269094E+02     2.2568324E-02     1.7736878E+02     1.2783441E-05    -8.9636521E+01   
                   1.1959531E-02    -2.1513543E+00   
  1.0000000E+10     1.0986814E-02    -8.7792489E+01     2.3561635E-05     5.3528083E+01     4.1962630E-02     5.4650831E+01     1.8028327E-05    -1.6816137E+02   
                   1.8105535E-02    -1.0420353E+02   
                   3.1137289E-05     4.1175455E+01     4.2807920E-01    -1.1273968E+01     4.5781261E-05    -3.9317474E+01     6.8280534E-02    -1.1300094E+02   
                   2.6076757E-05     1.4173903E+02   
                   4.1964702E-02     5.4647282E+01     5.1840769E-05    -4.3554671E+01     6.2494918E-02    -2.1776975E+00     2.8617298E-05     9.4054352E+01   
                   2.6341776E-02     1.7801077E+02   
                   2.1791048E-05    -1.7381192E+02     6.8286924E-02    -1.1300115E+02     2.6149680E-05     9.2930227E+01     6.2312110E-03     5.2792742E+01   
                   1.2589006E-05    -8.2211016E+01   
                   1.8108292E-02    -1.0419430E+02     2.3669900E-05     1.4718578E+02     2.6342036E-02     1.7801204E+02     1.2646349E-05    -8.4889927E+01   
                   1.2995544E-02    -1.7528818E+00   
  1.0500000E+10     1.2779505E-02    -5.9089460E+01     3.2931525E-05     1.4864901E+01     4.3510907E-02     4.7863382E+01     2.2496706E-05    -1.6910180E+02   
                   1.7785050E-02    -1.0812388E+02   
                   4.5812212E-05     2.5683428E+01     3.7106076E-01    -2.4365356E+01     5.9395365E-05    -5.0061005E+01     7.2583945E-02    -1.2233212E+02   
                   2.9559475E-05     1.3302707E+02   
                   4.3511918E-02     4.7871476E+01     6.9941831E-05    -4.7243436E+01     8.5110150E-02    -1.6997675E+00     3.2885921E-05     9.4875454E+01   
                   3.1866629E-02     1.7836037E+02   
                   2.1599835E-05    -1.5797900E+02     7.2579888E-02    -1.2233158E+02     3.2338715E-05     9.6867733E+01     5.6958980E-03     7.0901124E+01   
                   1.4226054E-05    -8.1077540E+01   
                   1.7780841E-02    -1.0812805E+02     2.1318331E-05     1.4546401E+02     3.1867713E-02     1.7836024E+02     1.4446364E-05    -7.8627142E+01   
                   1.4324628E-02    -1.5275886E+00   
  1.1000000E+10     1.7211707E-02    -4.2264373E+01     4.2144856E-05     2.6016071E+01     4.8713920E-02     3.9918994E+01     2.2836511E-05    -1.7823430E+02   
                   1.7924106E-02    -1.1325792E+02   
                   3.7373040E-05     3.7533822E+01     3.3060590E-01    -3.9210816E+01     8.0036016E-05    -5.4641121E+01     7.5843858E-02    -1.2922793E+02   
                   3.5063200E-05     1.2893148E+02   
                   4.8718286E-02     3.9927537E+01     8.0727300E-05    -5.1224713E+01     1.3546938E-01    -1.3093447E+00     4.0371281E-05     9.7835747E+01   
                   4.2016765E-02     1.7862826E+02   
                   2.4726418E-05    -1.7912825E+02     7.5842087E-02    -1.2922795E+02     4.1755319E-05     9.6043802E+01     5.9717948E-03     9.3437059E+01   
                   1.5180280E-05    -7.8438767E+01   
                   1.7919432E-02    -1.1327077E+02     3.2824423E-05     1.2241090E+02     4.2019341E-02     1.7862859E+02     1.6435152E-05    -8.3493696E+01   
                   1.6367118E-02    -1.3711935E+00   
  1.1500000E+10     2.5941815E-02    -3.7006311E+01     4.1600629E-05     6.1210543E+00     5.7824247E-02     1.9047841E+01     2.0564186E-05    -1.7595212E+02   
                   1.7576253E-02    -1.2413932E+02   
                   3.6875647E-05     4.6719627E+00     2.8684653E-01    -5.3757784E+01     1.1149084E-04    -6.5968948E+01     7.9427483E-02    -1.3415933E+02   
                   3.9572548E-05     1.2077182E+02   
                   5.7826232E-02     1.9050031E+01     1.1332251E-04    -6.4617476E+01     2.3916882E-01    -1.8735119E+01     5.7327517E-05     9.1850014E+01   
                   5.9990150E-02     1.6925423E+02   
                   2.5041695E-05     1.7966218E+02     7.9426066E-02    -1.3415950E+02     5.4508801E-05     9.0755783E+01     7.5192325E-03     1.1589188E+02   
                   1.9220665E-05    -8.0597235E+01   
                   1.7576886E-02    -1.2413059E+02     3.8375785E-05     1.1969637E+02     5.9991908E-02     1.6925384E+02     1.9003943E-05    -8.5697458E+01   
                   1.9497304E-02    -5.2851213E+00   
  1.2000000E+10     3.5842126E-02    -4.5352803E+01     3.3413146E-05    -3.9343556E+00     6.3106413E-02    -1.2475316E+01     2.3000812E-05     1.7909424E+02   
                   1.5067001E-02    -1.3837494E+02   
                   4.0822077E-05    -7.0865602E+00     2.3819387E-01    -6.6140114E+01     1.6007888E-04    -8.2771957E+01     8.4788931E-02    -1.3750196E+02   
                   4.7918726E-05     1.1145291E+02   
                   6.3112194E-02    -1.2474509E+01     1.6304154E-04    -8.5418877E+01     4.2458780E-01    -4.5510824E+01     7.3689681E-05     7.7919936E+01   
                   8.6487876E-02     1.5088994E+02   
                   2.0902147E-05    -1.7501456E+02     8.4784002E-02    -1.3750460E+02     7.2975869E-05     7.7552654E+01     1.0829155E-02     1.3229022E+02   
                   2.1297376E-05    -8.7724642E+01   
                   1.5066938E-02    -1.3837287E+02     4.7060696E-05     1.1663637E+02     8.6492029E-02     1.5088888E+02     2.3270911E-05    -9.0219287E+01   
                   2.3335134E-02    -1.4945374E+01   
  1.2500000E+10     4.1640837E-02    -5.8317650E+01     3.1131076E-05    -5.1603965E+00     4.9644015E-02    -5.9498682E+01     1.8430662E-05     1.7816466E+02   
                   9.1170932E-03    -1.3905735E+02   
                   2.3109512E-05    -3.6818929E+00     1.9242755E-01    -7.4313343E+01     1.9292672E-04    -1.1450024E+02     9.3420744E-02    -1.4051256E+02   
                   5.2696250E-05     9.7053060E+01   
                   4.9650560E-02    -5.9476382E+01     2.0327153E-04    -1.1623050E+02     6.4924313E-01    -9.0652327E+01     8.7135985E-05     5.3189719E+01   
                   1.0162397E-01     1.1745394E+02   
                   1.9421232E-05     1.7611953E+02     9.3424311E-02    -1.4050859E+02     8.2541274E-05     5.2399062E+01     1.6109170E-02     1.4144867E+02   
                   2.1377848E-05    -9.7226540E+01   
                   9.1157932E-03    -1.3900702E+02     4.9064862E-05     9.4740330E+01     1.0163191E-01     1.1745254E+02     2.0916335E-05    -1.0107321E+02   
                   2.3472235E-02    -3.2776529E+01   
  1.3000000E+10     4.5122399E-02    -6.7063754E+01     2.0314158E-05     1.6064481E+01     2.0205995E-02    -1.0420272E+02     2.0159495E-05    -1.7229466E+02   
                   9.5143038E-03    -1.1057618E+02   
                   2.5080850E-05     1.2302648E+01     1.5501921E-01    -7.6953199E+01     1.5448044E-04    -1.4218666E+02     1.0484453E-01    -1.4387107E+02   
                   4.5569672E-05     9.0191733E+01   
                   2.0199636E-02    -1.0418307E+02     1.4871400E-04    -1.4525660E+02     7.8889625E-01    -1.4172786E+02     5.9877393E-05     2.6353246E+01   
                   7.6050899E-02     8.4739898E+01   
                   2.1586872E-05    -1.7127909E+02     1.0484188E-01    -1.4387123E+02     5.5066198E-05     2.2415512E+01     2.3562687E-02     1.4730113E+02   
                   1.8795037E-05    -9.8132161E+01   
                   9.5213880E-03    -1.1058788E+02     4.7590077E-05     9.0857247E+01     7.6053517E-02     8.4741531E+01     1.8360354E-05    -1.0516194E+02   
                   1.7990936E-02    -4.1519412E+01   
  1.3500000E+10     5.0092812E-02    -7.6507942E+01     3.9075022E-05     2.8132159E+01     6.2381176E-03    -8.5387260E+01     2.1030360E-05     1.7781048E+02   
                   1.2293302E-02    -1.1262587E+02   
                   3.1147114E-05     2.0758936E+01     1.3587679E-01    -7.2220476E+01     1.3155942E-04    -1.2497165E+02     1.2031532E-01    -1.4709189E+02   
                   4.8100453E-05     9.7050330E+01   
                   6.2366767E-03    -8.5382953E+01     1.2647006E-04    -1.3092103E+02     4.4208093E-01     1.5688701E+02     4.9431669E-05     5.2601335E+01   
                   6.3556784E-02     9.8934457E+01   
                   2.2006476E-05    -1.7715425E+02     1.2031880E-01    -1.4709380E+02     4.8033486E-05     4.6673071E+01     3.4953135E-02     1.5229215E+02   
                   1.5846075E-05    -8.4245641E+01   
                   1.2296462E-02    -1.1263311E+02     5.2816988E-05     9.5040706E+01     6.3558227E-02     9.8936507E+01     1.6897308E-05    -8.2498395E+01   
                   1.5901782E-02    -2.4830850E+01   
  1.4000000E+10     5.4453393E-02    -8.8973901E+01     4.3689848E-05     2.3242660E+01     3.8189654E-03    -1.7957080E+01     2.1204928E-05    -1.6763234E+02   
                   1.3352466E-02    -1.1763082E+02   
                   4.2418863E-05     1.3959246E+01     1.4740608E-01    -6.7768928E+01     1.4833596E-04    -1.3189718E+02     1.4440194E-01    -1.5106977E+02   
                   5.5203562E-05     1.0073581E+02   
                   3.8183844E-03    -1.7940472E+01     1.4595844E-04    -1.3605766E+02     2.7407084E-01     1.3631355E+02     5.1092887E-05     4.9869709E+01   
                   6.6094309E-02     9.0611115E+01   
                   1.8845185E-05    -1.6517393E+02     1.4439396E-01    -1.5107081E+02     4.9255799E-05     4.7905050E+01     5.4451990E-02     1.5557503E+02   
                   1.7709976E-05    -6.9114707E+01   
                   1.3351532E-02    -1.1763537E+02     6.1224226E-05     9.8004008E+01     6.6092045E-02     9.0610810E+01     1.9377625E-05    -6.6592987E+01   
                   1.8058257E-02    -1.8908956E+01   
  1.4500000E+10     5.8172494E-02    -1.0611996E+02     3.3428043E-05    -1.3768600E+01     6.4104612E-03    -1.1245824E+00     2.0680717E-05    -1.7033291E+02   
                   1.4213793E-02    -1.2217900E+02   
                   5.2404002E-05    -7.3172110E+00     1.8674419E-01    -7.3440634E+01     1.6577083E-04    -1.4382666E+02     1.8765953E-01    -1.5623724E+02   
                   6.8930018E-05     9.8282063E+01   
                   6.4025186E-03    -1.1585616E+00     1.9225635E-04    -1.4516062E+02     1.8322958E-01     1.1955263E+02     5.0127040E-05     5.7664539E+01   
                   6.7809189E-02     8.3224922E+01   
                   2.3741865E-05    -1.5094628E+02     1.8765993E-01    -1.5623584E+02     4.9786678E-05     6.3580238E+01     9.4302558E-02     1.5722002E+02   
                   1.9557649E-05    -4.9977825E+01   
                   1.4215757E-02    -1.2217265E+02     6.4626421E-05     1.0621512E+02     6.7815483E-02     8.3224484E+01     2.0121083E-05    -4.9888639E+01   
                   2.0541322E-02    -1.5912558E+01   
  1.5000000E+10     4.7996360E-02    -1.2352242E+02     5.0091193E-05    -7.9884004E+00     1.0429083E-02    -5.7172417E+00     2.3435950E-05    -1.5404409E+02   
                   1.5037469E-02    -1.2822057E+02   
                   5.4495036E-05    -2.4842797E+00     1.9143899E-01    -9.9579984E+01     1.8481877E-04    -1.6064557E+02     2.4803919E-01    -1.7326084E+02   
                   7.8407034E-05     9.0823893E+01   
                   1.0417801E-02    -5.6905475E+00     1.8343097E-04    -1.5644396E+02     1.2304858E-01     1.0812426E+02     6.4070549E-05     6.9408022E+01   
                   7.0223151E-02     7.5757608E+01   
                   1.7950716E-05    -1.6464193E+02     2.4803770E-01    -1.7326326E+02     7.0153497E-05     7.3023092E+01     1.6698335E-01     1.4700762E+02   
                   2.5007105E-05    -3.5534103E+01   
                   1.5042467E-02    -1.2823979E+02     7.5087838E-05     8.9906211E+01     7.0220469E-02     7.5761159E+01     2.9044107E-05    -4.1597554E+01   
                   2.3564898E-02    -1.3986135E+01   
  1.5500000E+10     3.9092751E-02    -1.3652644E+02     4.3004416E-05    -1.4572786E+01     1.3877523E-02    -2.9537925E+01     3.0360982E-05    -1.5953636E+02   
                   1.5807745E-02    -1.3514986E+02   
                   4.2567144E-05    -2.0682861E+01     1.4716929E-01    -1.2827634E+02     1.8537828E-04    -1.7565158E+02     3.2210342E-01     1.6333373E+02   
                   8.9047772E-05     7.8860841E+01   
                   1.3885788E-02    -2.9532666E+01     1.8627757E-04    -1.7708644E+02     8.6239023E-02     1.0459351E+02     1.0486732E-04     7.3238447E+01   
                   7.2902278E-02     6.7827774E+01   
                   2.3767925E-05    -1.6320142E+02     3.2209331E-01     1.6333372E+02     9.9867395E-05     7.2689532E+01     3.2449173E-01     1.3067783E+02   
                   4.5739413E-05    -2.3031066E+01   
                   1.5810500E-02    -1.3512119E+02     8.7188420E-05     8.0189712E+01     7.2902822E-02     6.7834197E+01     4.4660704E-05    -2.0512852E+01   
                   2.7201328E-02    -1.2560327E+01   
  1.6000000E+10     2.7509310E-02    -1.3509411E+02     4.5383219E-05    -2.8575884E+01     1.5147627E-02    -7.4898652E+01     4.5228868E-05    -1.6513785E+02   
                   1.5823431E-02    -1.4481012E+02   
                   4.3186984E-05    -2.9150982E+01     2.7938238E-02    -8.9008480E+01     1.4366458E-04     1.6700240E+02     3.2453553E-01     1.2066594E+02   
                   7.5233409E-05     7.0562846E+01   
                   1.5146651E-02    -7.4890249E+01     1.4919583E-04     1.6782261E+02     7.4471777E-02     1.0494088E+02     1.6466117E-04     5.4907276E+01   
                   7.6149226E-02     5.9041681E+01   
                   3.8675406E-05    -1.6307539E+02     3.2452279E-01     1.2066793E+02     1.6167975E-04     5.4321213E+01     5.7270763E-01     9.0500561E+01   
                   8.3622527E-05    -4.1834569E+01   
                   1.5823791E-02    -1.4480357E+02     7.5168762E-05     7.1177267E+01     7.6148027E-02     5.9045345E+01     8.6213945E-05    -4.1109255E+01   
                   3.2053304E-02    -1.1494227E+01   
  1.6500000E+10     3.0824180E-02    -1.3357833E+02     3.7351501E-05    -2.5854188E+01     9.6530569E-03    -1.2203560E+02     4.4186371E-05    -1.7144544E+02   
                   1.5266483E-02    -1.4872851E+02   
                   3.4536773E-05    -2.7295118E+01     1.4371250E-01    -7.5678168E+01     1.2856798E-04     1.7540249E+02     1.5823099E-01     9.5266018E+01   
                   7.7622887E-05     8.1693044E+01   
                   9.6510012E-03    -1.2201233E+02     1.2678650E-04     1.7509850E+02     6.8511920E-02     9.9087884E+01     1.5724093E-04     2.5559378E+01   
                   7.9229591E-02     5.0684323E+01   
                   4.4524785E-05    -1.7805071E+02     1.5823382E-01     9.5264402E+01     1.5592911E-04     2.4561605E+01     5.9561550E-01     5.0862476E+01   
                   9.7167433E-05    -6.2506663E+01   
                   1.5262697E-02    -1.4873645E+02     7.2064679E-05     7.7053575E+01     7.9233671E-02     5.0686238E+01     9.4985845E-05    -6.3602058E+01   
                   3.8820342E-02    -1.0112288E+01   
  1.7000000E+10     2.9148626E-02    -1.5224251E+02     4.4110352E-05    -2.6516170E+01     5.5962723E-03    -1.5634047E+02     4.5966742E-05     1.7037996E+02   
                   1.6270204E-02    -1.5310300E+02   
                   3.5882766E-05    -2.6099004E+01     1.7171903E-01    -1.0609131E+02     1.4184659E-04     1.6825309E+02     1.0299192E-01     1.1677707E+02   
                   9.4538403E-05     8.4198702E+01   
                   5.5981058E-03    -1.5631062E+02     1.5461853E-04     1.6970639E+02     6.6019403E-02     9.0352768E+01     1.3759659E-04     1.3196078E+01   
                   8.4494767E-02     4.2272638E+01   
                   4.2650336E-05     1.7244021E+02     1.0298311E-01     1.1677297E+02     1.3516774E-04     1.2870709E+01     6.4150411E-01     2.8844943E+01   
                   8.9381791E-05    -7.1386692E+01   
                   1.6265105E-02    -1.5310657E+02     9.3141385E-05     8.3867333E+01     8.4496690E-02     4.2272513E+01     9.2739255E-05    -7.1211716E+01   
                   4.8988866E-02    -9.0038625E+00   
  1.7500000E+10     1.7241951E-02    -1.7312920E+02     4.1182345E-05    -3.2381808E+01     4.3200469E-03     1.6738365E+02     4.6074530E-05    -1.6733223E+02   
                   1.7319578E-02    -1.6221069E+02   
                   4.5562767E-05    -3.5251530E+01     1.5408071E-01    -1.3119252E+02     1.3182919E-04     1.6341517E+02     1.2547547E-01     1.5013528E+02   
                   1.0988893E-04     8.5640453E+01   
                   4.3119070E-03     1.6750955E+02     1.2333858E-04     1.6627369E+02     6.5370225E-02     7.4646932E+01     1.2957763E-04     2.9452313E+01   
                   9.3125390E-02     3.2716952E+01   